unknown system                          
   1.00000000000000     
     5.431010    0.000000    0.000000
     0.000000    5.431010    0.000000
     0.000000    0.000000    5.431010
   Si
     8
Direct
  0.000000  0.000000  0.000000
  0.000000  0.500000  0.500000
  0.500000  0.000000  0.500000
  0.500000  0.500000  0.000000
  0.250000  0.250000  0.250000
  0.250000  0.750000  0.750000
  0.750000  0.250000  0.750000
  0.750000  0.750000  0.250000
 
   48   48   48
 -.30521503697E+02 -.24339001782E+02 -.76780147736E+01 0.14573076254E+02 0.36429593043E+02
 0.52905016974E+02 0.61406228967E+02 0.62038885128E+02 0.56965468457E+02 0.49246410037E+02
 0.41191857392E+02 0.33621372156E+02 0.26950865315E+02 0.21357278988E+02 0.16841297996E+02
 0.13294960279E+02 0.10560867366E+02 0.84762740203E+01 0.68990608755E+01 0.57169153761E+01
 0.48458284906E+01 0.42248507518E+01 0.38108239304E+01 0.35742887951E+01 0.34974645342E+01
 0.35742887951E+01 0.38108239304E+01 0.42248507518E+01 0.48458284906E+01 0.57169153761E+01
 0.68990608755E+01 0.84762740203E+01 0.10560867366E+02 0.13294960279E+02 0.16841297996E+02
 0.21357278988E+02 0.26950865315E+02 0.33621372156E+02 0.41191857392E+02 0.49246410037E+02
 0.56965468457E+02 0.62038885128E+02 0.61406228967E+02 0.52905016974E+02 0.36429593043E+02
 0.14573076254E+02 -.76780147736E+01 -.24339001782E+02 -.24339001782E+02 -.18449009051E+02
 -.25955952721E+01 0.18517409572E+02 0.39141244952E+02 0.54505091643E+02 0.62159524937E+02
 0.62262821569E+02 0.56949251643E+02 0.49194267409E+02 0.41163793920E+02 0.33627849660E+02
 0.26990175989E+02 0.21421743008E+02 0.16921795720E+02 0.13383585602E+02 0.10651975905E+02
 0.85664878776E+01 0.69867778245E+01 0.58016971123E+01 0.49278759643E+01 0.43046542572E+01
 0.38889840785E+01 0.36514488611E+01 0.35742887951E+01 0.36514488611E+01 0.38889840785E+01
 0.43046542572E+01 0.49278759643E+01 0.58016971123E+01 0.69867778245E+01 0.85664878776E+01
 0.10651975905E+02 0.13383585602E+02 0.16921795720E+02 0.21421743008E+02 0.26990175989E+02
 0.33627849660E+02 0.41163793920E+02 0.49194267409E+02 0.56949251643E+02 0.62262821569E+02
 0.62159524937E+02 0.54505091643E+02 0.39141244952E+02 0.18517409572E+02 -.25955952721E+01
 -.18449009051E+02 -.76780147736E+01 -.25955952721E+01 0.11030697572E+02 0.29012583564E+02
 0.46258972251E+02 0.58597977964E+02 0.63975625799E+02 0.62689491637E+02 0.56786627517E+02
 0.48986689799E+02 0.41048851152E+02 0.33628916595E+02 0.27097369613E+02 0.21609360447E+02
 0.17161011594E+02 0.13649803771E+02 0.10927638304E+02 0.88409420954E+01 0.72547599435E+01
 0.60615044888E+01 0.51798208383E+01 0.45500261800E+01 0.41294928329E+01 0.38889840785E+01
 0.38108239304E+01 0.38889840785E+01 0.41294928329E+01 0.45500261800E+01 0.51798208383E+01
 0.60615044888E+01 0.72547599435E+01 0.88409420954E+01 0.10927638304E+02 0.13649803771E+02
 0.17161011594E+02 0.21609360447E+02 0.27097369613E+02 0.33628916595E+02 0.41048851152E+02
 0.48986689799E+02 0.56786627517E+02 0.62689491637E+02 0.63975625799E+02 0.58597977964E+02
 0.46258972251E+02 0.29012583564E+02 0.11030697572E+02 -.25955952721E+01 0.14573076254E+02
 0.18517409572E+02 0.29012583564E+02 0.42615214712E+02 0.55180480220E+02 0.63391154887E+02
 0.65746634725E+02 0.62722086218E+02 0.56212454547E+02 0.48495453662E+02 0.40768605419E+02
 0.33576470225E+02 0.27243313479E+02 0.21903791104E+02 0.17552067041E+02 0.14094154604E+02
 0.11394235272E+02 0.93104338371E+01 0.77169013750E+01 0.65121852111E+01 0.56185936225E+01
 0.49784199444E+01 0.45500261800E+01 0.43046542572E+01 0.42248507518E+01 0.43046542572E+01
 0.45500261800E+01 0.49784199444E+01 0.56185936225E+01 0.65121852111E+01 0.77169013750E+01
 0.93104338371E+01 0.11394235272E+02 0.14094154604E+02 0.17552067041E+02 0.21903791104E+02
 0.27243313479E+02 0.33576470225E+02 0.40768605419E+02 0.48495453662E+02 0.56212454547E+02
 0.62722086218E+02 0.65746634725E+02 0.63391154887E+02 0.55180480220E+02 0.42615214712E+02
 0.29012583564E+02 0.18517409572E+02 0.36429593043E+02 0.39141244952E+02 0.46258972251E+02
 0.55180480220E+02 0.62822446668E+02 0.66813380754E+02 0.66244160742E+02 0.61745658698E+02
 0.54989063134E+02 0.47576249650E+02 0.40230980911E+02 0.33410336775E+02 0.27388696913E+02
 0.22281200556E+02 0.18083967859E+02 0.14716722851E+02 0.12061170261E+02 0.99917318690E+01
 0.83953226358E+01 0.71793745485E+01 0.62718881516E+01 0.56185936225E+01 0.51798208383E+01
 0.49278759643E+01 0.48458284906E+01 0.49278759643E+01 0.51798208383E+01 0.56185936225E+01
 0.62718881516E+01 0.71793745485E+01 0.83953226358E+01 0.99917318690E+01 0.12061170261E+02
 0.14716722851E+02 0.18083967859E+02 0.22281200556E+02 0.27388696913E+02 0.33410336775E+02
 0.40230980911E+02 0.47576249650E+02 0.54989063134E+02 0.61745658698E+02 0.66244160742E+02
 0.66813380754E+02 0.62822446668E+02 0.55180480220E+02 0.46258972251E+02 0.39141244952E+02
 0.52905016974E+02 0.54505091643E+02 0.58597977964E+02 0.63391154887E+02 0.66813380754E+02
 0.67375522471E+02 0.64688017257E+02 0.59463744157E+02 0.53000100412E+02 0.46132007538E+02
 0.39367104634E+02 0.33078731308E+02 0.27494769677E+02 0.22715471778E+02 0.18743819703E+02
 0.15517867581E+02 0.12941020021E+02 0.10907688090E+02 0.93207475318E+01 0.80992800753E+01
 0.71793745485E+01 0.65121852111E+01 0.60615044888E+01 0.58016971123E+01 0.57169153761E+01
 0.58016971123E+01 0.60615044888E+01 0.65121852111E+01 0.71793745485E+01 0.80992800753E+01
 0.93207475318E+01 0.10907688090E+02 0.12941020021E+02 0.15517867581E+02 0.18743819703E+02
 0.22715471778E+02 0.27494769677E+02 0.33078731308E+02 0.39367104634E+02 0.46132007538E+02
 0.53000100412E+02 0.59463744157E+02 0.64688017257E+02 0.67375522471E+02 0.66813380754E+02
 0.63391154887E+02 0.58597977964E+02 0.54505091643E+02 0.61406228967E+02 0.62159524937E+02
 0.63975625799E+02 0.65746634725E+02 0.66244160742E+02 0.64688017257E+02 0.61061697765E+02
 0.56027901388E+02 0.50238937153E+02 0.44149112306E+02 0.38154937373E+02 0.32553704550E+02
 0.27533519921E+02 0.23184900484E+02 0.19521152723E+02 0.16500978130E+02 0.14051391346E+02
 0.12088766343E+02 0.10534152101E+02 0.93207475318E+01 0.83953226358E+01 0.77169013750E+01
 0.72547599435E+01 0.69867778245E+01 0.68990608755E+01 0.69867778245E+01 0.72547599435E+01
 0.77169013750E+01 0.83953226358E+01 0.93207475318E+01 0.10534152101E+02 0.12088766343E+02
 0.14051391346E+02 0.16500978130E+02 0.19521152723E+02 0.23184900484E+02 0.27533519921E+02
 0.32553704550E+02 0.38154937373E+02 0.44149112306E+02 0.50238937153E+02 0.56027901388E+02
 0.61061697765E+02 0.64688017257E+02 0.66244160742E+02 0.65746634725E+02 0.63975625799E+02
 0.62159524937E+02 0.62038885128E+02 0.62262821569E+02 0.62689491637E+02 0.62722086218E+02
 0.61745658698E+02 0.59463744157E+02 0.56027901388E+02 0.51715332711E+02 0.46827652493E+02
 0.41697384961E+02 0.36623540310E+02 0.31837651003E+02 0.27494769677E+02 0.23678659542E+02
 0.20413087802E+02 0.17676223501E+02 0.15417551124E+02 0.13575076837E+02 0.12088766343E+02
 0.10907688090E+02 0.99917318690E+01 0.93104338371E+01 0.88409420954E+01 0.85664878776E+01
 0.84762740203E+01 0.85664878776E+01 0.88409420954E+01 0.93104338371E+01 0.99917318690E+01
 0.10907688090E+02 0.12088766343E+02 0.13575076837E+02 0.15417551124E+02 0.17676223501E+02
 0.20413087802E+02 0.23678659542E+02 0.27494769677E+02 0.31837651003E+02 0.36623540310E+02
 0.41697384961E+02 0.46827652493E+02 0.51715332711E+02 0.56027901388E+02 0.59463744157E+02
 0.61745658698E+02 0.62722086218E+02 0.62689491637E+02 0.62262821569E+02 0.56965468457E+02
 0.56949251643E+02 0.56786627517E+02 0.56212454547E+02 0.54989063134E+02 0.53000100412E+02
 0.50238937153E+02 0.46827652493E+02 0.42971897618E+02 0.38904550484E+02 0.34842302818E+02
 0.30961438095E+02 0.27388696913E+02 0.24200657230E+02 0.21427836345E+02 0.19063066201E+02
 0.17074037102E+02 0.15417551124E+02 0.14051391346E+02 0.12941020021E+02 0.12061170261E+02
 0.11394235272E+02 0.10927638304E+02 0.10651975905E+02 0.10560867366E+02 0.10651975905E+02
 0.10927638304E+02 0.11394235272E+02 0.12061170261E+02 0.12941020021E+02 0.14051391346E+02
 0.15417551124E+02 0.17074037102E+02 0.19063066201E+02 0.21427836345E+02 0.24200657230E+02
 0.27388696913E+02 0.30961438095E+02 0.34842302818E+02 0.38904550484E+02 0.42971897618E+02
 0.46827652493E+02 0.50238937153E+02 0.53000100412E+02 0.54989063134E+02 0.56212454547E+02
 0.56786627517E+02 0.56949251643E+02 0.49246410037E+02 0.49194267409E+02 0.48986689799E+02
 0.48495453662E+02 0.47576249650E+02 0.46132007538E+02 0.44149112306E+02 0.41697384961E+02
 0.38904550484E+02 0.35923276522E+02 0.32903931007E+02 0.29977026865E+02 0.27243313479E+02
 0.24768784166E+02 0.22584072796E+02 0.20689143222E+02 0.19063066201E+02 0.17676223501E+02
 0.16500978130E+02 0.15517867581E+02 0.14716722851E+02 0.14094154604E+02 0.13649803771E+02
 0.13383585602E+02 0.13294960279E+02 0.13383585602E+02 0.13649803771E+02 0.14094154604E+02
 0.14716722851E+02 0.15517867581E+02 0.16500978130E+02 0.17676223501E+02 0.19063066201E+02
 0.20689143222E+02 0.22584072796E+02 0.24768784166E+02 0.27243313479E+02 0.29977026865E+02
 0.32903931007E+02 0.35923276522E+02 0.38904550484E+02 0.41697384961E+02 0.44149112306E+02
 0.46132007538E+02 0.47576249650E+02 0.48495453662E+02 0.48986689799E+02 0.49194267409E+02
 0.41191857392E+02 0.41163793920E+02 0.41048851152E+02 0.40768605419E+02 0.40230980911E+02
 0.39367104634E+02 0.38154937373E+02 0.36623540310E+02 0.34842302818E+02 0.32903931007E+02
 0.30907968905E+02 0.28947271758E+02 0.27097369613E+02 0.25408980384E+02 0.23905113509E+02
 0.22584072796E+02 0.21427836345E+02 0.20413087802E+02 0.19521152723E+02 0.18743819703E+02
 0.18083967859E+02 0.17552067041E+02 0.17161011594E+02 0.16921795720E+02 0.16841297996E+02
 0.16921795720E+02 0.17161011594E+02 0.17552067041E+02 0.18083967859E+02 0.18743819703E+02
 0.19521152723E+02 0.20413087802E+02 0.21427836345E+02 0.22584072796E+02 0.23905113509E+02
 0.25408980384E+02 0.27097369613E+02 0.28947271758E+02 0.30907968905E+02 0.32903931007E+02
 0.34842302818E+02 0.36623540310E+02 0.38154937373E+02 0.39367104634E+02 0.40230980911E+02
 0.40768605419E+02 0.41048851152E+02 0.41163793920E+02 0.33621372156E+02 0.33627849660E+02
 0.33628916595E+02 0.33576470225E+02 0.33410336775E+02 0.33078731308E+02 0.32553704550E+02
 0.31837651003E+02 0.30961438095E+02 0.29977026865E+02 0.28947271758E+02 0.27934610105E+02
 0.26990175989E+02 0.26145479670E+02 0.25408980384E+02 0.24768784166E+02 0.24200657230E+02
 0.23678659542E+02 0.23184900484E+02 0.22715471778E+02 0.22281200556E+02 0.21903791104E+02
 0.21609360447E+02 0.21421743008E+02 0.21357278988E+02 0.21421743008E+02 0.21609360447E+02
 0.21903791104E+02 0.22281200556E+02 0.22715471778E+02 0.23184900484E+02 0.23678659542E+02
 0.24200657230E+02 0.24768784166E+02 0.25408980384E+02 0.26145479670E+02 0.26990175989E+02
 0.27934610105E+02 0.28947271758E+02 0.29977026865E+02 0.30961438095E+02 0.31837651003E+02
 0.32553704550E+02 0.33078731308E+02 0.33410336775E+02 0.33576470225E+02 0.33628916595E+02
 0.33627849660E+02 0.26950865315E+02 0.26990175989E+02 0.27097369613E+02 0.27243313479E+02
 0.27388696913E+02 0.27494769677E+02 0.27533519921E+02 0.27494769677E+02 0.27388696913E+02
 0.27243313479E+02 0.27097369613E+02 0.26990175989E+02 0.26950865315E+02 0.26990175989E+02
 0.27097369613E+02 0.27243313479E+02 0.27388696913E+02 0.27494769677E+02 0.27533519921E+02
 0.27494769677E+02 0.27388696913E+02 0.27243313479E+02 0.27097369613E+02 0.26990175989E+02
 0.26950865315E+02 0.26990175989E+02 0.27097369613E+02 0.27243313479E+02 0.27388696913E+02
 0.27494769677E+02 0.27533519921E+02 0.27494769677E+02 0.27388696913E+02 0.27243313479E+02
 0.27097369613E+02 0.26990175989E+02 0.26950865315E+02 0.26990175989E+02 0.27097369613E+02
 0.27243313479E+02 0.27388696913E+02 0.27494769677E+02 0.27533519921E+02 0.27494769677E+02
 0.27388696913E+02 0.27243313479E+02 0.27097369613E+02 0.26990175989E+02 0.21357278988E+02
 0.21421743008E+02 0.21609360447E+02 0.21903791104E+02 0.22281200556E+02 0.22715471778E+02
 0.23184900484E+02 0.23678659542E+02 0.24200657230E+02 0.24768784166E+02 0.25408980384E+02
 0.26145479670E+02 0.26990175989E+02 0.27934610105E+02 0.28947271758E+02 0.29977026865E+02
 0.30961438095E+02 0.31837651003E+02 0.32553704550E+02 0.33078731308E+02 0.33410336775E+02
 0.33576470225E+02 0.33628916595E+02 0.33627849660E+02 0.33621372156E+02 0.33627849660E+02
 0.33628916595E+02 0.33576470225E+02 0.33410336775E+02 0.33078731308E+02 0.32553704550E+02
 0.31837651003E+02 0.30961438095E+02 0.29977026865E+02 0.28947271758E+02 0.27934610105E+02
 0.26990175989E+02 0.26145479670E+02 0.25408980384E+02 0.24768784166E+02 0.24200657230E+02
 0.23678659542E+02 0.23184900484E+02 0.22715471778E+02 0.22281200556E+02 0.21903791104E+02
 0.21609360447E+02 0.21421743008E+02 0.16841297996E+02 0.16921795720E+02 0.17161011594E+02
 0.17552067041E+02 0.18083967859E+02 0.18743819703E+02 0.19521152723E+02 0.20413087802E+02
 0.21427836345E+02 0.22584072796E+02 0.23905113509E+02 0.25408980384E+02 0.27097369613E+02
 0.28947271758E+02 0.30907968905E+02 0.32903931007E+02 0.34842302818E+02 0.36623540310E+02
 0.38154937373E+02 0.39367104634E+02 0.40230980911E+02 0.40768605419E+02 0.41048851152E+02
 0.41163793920E+02 0.41191857392E+02 0.41163793920E+02 0.41048851152E+02 0.40768605419E+02
 0.40230980911E+02 0.39367104634E+02 0.38154937373E+02 0.36623540310E+02 0.34842302818E+02
 0.32903931007E+02 0.30907968905E+02 0.28947271758E+02 0.27097369613E+02 0.25408980384E+02
 0.23905113509E+02 0.22584072796E+02 0.21427836345E+02 0.20413087802E+02 0.19521152723E+02
 0.18743819703E+02 0.18083967859E+02 0.17552067041E+02 0.17161011594E+02 0.16921795720E+02
 0.13294960279E+02 0.13383585602E+02 0.13649803771E+02 0.14094154604E+02 0.14716722851E+02
 0.15517867581E+02 0.16500978130E+02 0.17676223501E+02 0.19063066201E+02 0.20689143222E+02
 0.22584072796E+02 0.24768784166E+02 0.27243313479E+02 0.29977026865E+02 0.32903931007E+02
 0.35923276522E+02 0.38904550484E+02 0.41697384961E+02 0.44149112306E+02 0.46132007538E+02
 0.47576249650E+02 0.48495453662E+02 0.48986689799E+02 0.49194267409E+02 0.49246410037E+02
 0.49194267409E+02 0.48986689799E+02 0.48495453662E+02 0.47576249650E+02 0.46132007538E+02
 0.44149112306E+02 0.41697384961E+02 0.38904550484E+02 0.35923276522E+02 0.32903931007E+02
 0.29977026865E+02 0.27243313479E+02 0.24768784166E+02 0.22584072796E+02 0.20689143222E+02
 0.19063066201E+02 0.17676223501E+02 0.16500978130E+02 0.15517867581E+02 0.14716722851E+02
 0.14094154604E+02 0.13649803771E+02 0.13383585602E+02 0.10560867366E+02 0.10651975905E+02
 0.10927638304E+02 0.11394235272E+02 0.12061170261E+02 0.12941020021E+02 0.14051391346E+02
 0.15417551124E+02 0.17074037102E+02 0.19063066201E+02 0.21427836345E+02 0.24200657230E+02
 0.27388696913E+02 0.30961438095E+02 0.34842302818E+02 0.38904550484E+02 0.42971897618E+02
 0.46827652493E+02 0.50238937153E+02 0.53000100412E+02 0.54989063134E+02 0.56212454547E+02
 0.56786627517E+02 0.56949251643E+02 0.56965468457E+02 0.56949251643E+02 0.56786627517E+02
 0.56212454547E+02 0.54989063134E+02 0.53000100412E+02 0.50238937153E+02 0.46827652493E+02
 0.42971897618E+02 0.38904550484E+02 0.34842302818E+02 0.30961438095E+02 0.27388696913E+02
 0.24200657230E+02 0.21427836345E+02 0.19063066201E+02 0.17074037102E+02 0.15417551124E+02
 0.14051391346E+02 0.12941020021E+02 0.12061170261E+02 0.11394235272E+02 0.10927638304E+02
 0.10651975905E+02 0.84762740203E+01 0.85664878776E+01 0.88409420954E+01 0.93104338371E+01
 0.99917318690E+01 0.10907688090E+02 0.12088766343E+02 0.13575076837E+02 0.15417551124E+02
 0.17676223501E+02 0.20413087802E+02 0.23678659542E+02 0.27494769677E+02 0.31837651003E+02
 0.36623540310E+02 0.41697384961E+02 0.46827652493E+02 0.51715332711E+02 0.56027901388E+02
 0.59463744157E+02 0.61745658698E+02 0.62722086218E+02 0.62689491637E+02 0.62262821569E+02
 0.62038885128E+02 0.62262821569E+02 0.62689491637E+02 0.62722086218E+02 0.61745658698E+02
 0.59463744157E+02 0.56027901388E+02 0.51715332711E+02 0.46827652493E+02 0.41697384961E+02
 0.36623540310E+02 0.31837651003E+02 0.27494769677E+02 0.23678659542E+02 0.20413087802E+02
 0.17676223501E+02 0.15417551124E+02 0.13575076837E+02 0.12088766343E+02 0.10907688090E+02
 0.99917318690E+01 0.93104338371E+01 0.88409420954E+01 0.85664878776E+01 0.68990608755E+01
 0.69867778245E+01 0.72547599435E+01 0.77169013750E+01 0.83953226358E+01 0.93207475318E+01
 0.10534152101E+02 0.12088766343E+02 0.14051391346E+02 0.16500978130E+02 0.19521152723E+02
 0.23184900484E+02 0.27533519921E+02 0.32553704550E+02 0.38154937373E+02 0.44149112306E+02
 0.50238937153E+02 0.56027901388E+02 0.61061697765E+02 0.64688017257E+02 0.66244160742E+02
 0.65746634725E+02 0.63975625799E+02 0.62159524937E+02 0.61406228967E+02 0.62159524937E+02
 0.63975625799E+02 0.65746634725E+02 0.66244160742E+02 0.64688017257E+02 0.61061697765E+02
 0.56027901388E+02 0.50238937153E+02 0.44149112306E+02 0.38154937373E+02 0.32553704550E+02
 0.27533519921E+02 0.23184900484E+02 0.19521152723E+02 0.16500978130E+02 0.14051391346E+02
 0.12088766343E+02 0.10534152101E+02 0.93207475318E+01 0.83953226358E+01 0.77169013750E+01
 0.72547599435E+01 0.69867778245E+01 0.57169153761E+01 0.58016971123E+01 0.60615044888E+01
 0.65121852111E+01 0.71793745485E+01 0.80992800753E+01 0.93207475318E+01 0.10907688090E+02
 0.12941020021E+02 0.15517867581E+02 0.18743819703E+02 0.22715471778E+02 0.27494769677E+02
 0.33078731308E+02 0.39367104634E+02 0.46132007538E+02 0.53000100412E+02 0.59463744157E+02
 0.64688017257E+02 0.67375522471E+02 0.66813380754E+02 0.63391154887E+02 0.58597977964E+02
 0.54505091643E+02 0.52905016974E+02 0.54505091643E+02 0.58597977964E+02 0.63391154887E+02
 0.66813380754E+02 0.67375522471E+02 0.64688017257E+02 0.59463744157E+02 0.53000100412E+02
 0.46132007538E+02 0.39367104634E+02 0.33078731308E+02 0.27494769677E+02 0.22715471778E+02
 0.18743819703E+02 0.15517867581E+02 0.12941020021E+02 0.10907688090E+02 0.93207475318E+01
 0.80992800753E+01 0.71793745485E+01 0.65121852111E+01 0.60615044888E+01 0.58016971123E+01
 0.48458284906E+01 0.49278759643E+01 0.51798208383E+01 0.56185936225E+01 0.62718881516E+01
 0.71793745485E+01 0.83953226358E+01 0.99917318690E+01 0.12061170261E+02 0.14716722851E+02
 0.18083967859E+02 0.22281200556E+02 0.27388696913E+02 0.33410336775E+02 0.40230980911E+02
 0.47576249650E+02 0.54989063134E+02 0.61745658698E+02 0.66244160742E+02 0.66813380754E+02
 0.62822446668E+02 0.55180480220E+02 0.46258972251E+02 0.39141244952E+02 0.36429593043E+02
 0.39141244952E+02 0.46258972251E+02 0.55180480220E+02 0.62822446668E+02 0.66813380754E+02
 0.66244160742E+02 0.61745658698E+02 0.54989063134E+02 0.47576249650E+02 0.40230980911E+02
 0.33410336775E+02 0.27388696913E+02 0.22281200556E+02 0.18083967859E+02 0.14716722851E+02
 0.12061170261E+02 0.99917318690E+01 0.83953226358E+01 0.71793745485E+01 0.62718881516E+01
 0.56185936225E+01 0.51798208383E+01 0.49278759643E+01 0.42248507518E+01 0.43046542572E+01
 0.45500261800E+01 0.49784199444E+01 0.56185936225E+01 0.65121852111E+01 0.77169013750E+01
 0.93104338371E+01 0.11394235272E+02 0.14094154604E+02 0.17552067041E+02 0.21903791104E+02
 0.27243313479E+02 0.33576470225E+02 0.40768605419E+02 0.48495453662E+02 0.56212454547E+02
 0.62722086218E+02 0.65746634725E+02 0.63391154887E+02 0.55180480220E+02 0.42615214712E+02
 0.29012583564E+02 0.18517409572E+02 0.14573076254E+02 0.18517409572E+02 0.29012583564E+02
 0.42615214712E+02 0.55180480220E+02 0.63391154887E+02 0.65746634725E+02 0.62722086218E+02
 0.56212454547E+02 0.48495453662E+02 0.40768605419E+02 0.33576470225E+02 0.27243313479E+02
 0.21903791104E+02 0.17552067041E+02 0.14094154604E+02 0.11394235272E+02 0.93104338371E+01
 0.77169013750E+01 0.65121852111E+01 0.56185936225E+01 0.49784199444E+01 0.45500261800E+01
 0.43046542572E+01 0.38108239304E+01 0.38889840785E+01 0.41294928329E+01 0.45500261800E+01
 0.51798208383E+01 0.60615044888E+01 0.72547599435E+01 0.88409420954E+01 0.10927638304E+02
 0.13649803771E+02 0.17161011594E+02 0.21609360447E+02 0.27097369613E+02 0.33628916595E+02
 0.41048851152E+02 0.48986689799E+02 0.56786627517E+02 0.62689491637E+02 0.63975625799E+02
 0.58597977964E+02 0.46258972251E+02 0.29012583564E+02 0.11030697572E+02 -.25955952721E+01
 -.76780147736E+01 -.25955952721E+01 0.11030697572E+02 0.29012583564E+02 0.46258972251E+02
 0.58597977964E+02 0.63975625799E+02 0.62689491637E+02 0.56786627517E+02 0.48986689799E+02
 0.41048851152E+02 0.33628916595E+02 0.27097369613E+02 0.21609360447E+02 0.17161011594E+02
 0.13649803771E+02 0.10927638304E+02 0.88409420954E+01 0.72547599435E+01 0.60615044888E+01
 0.51798208383E+01 0.45500261800E+01 0.41294928329E+01 0.38889840785E+01 0.35742887951E+01
 0.36514488611E+01 0.38889840785E+01 0.43046542572E+01 0.49278759643E+01 0.58016971123E+01
 0.69867778245E+01 0.85664878776E+01 0.10651975905E+02 0.13383585602E+02 0.16921795720E+02
 0.21421743008E+02 0.26990175989E+02 0.33627849660E+02 0.41163793920E+02 0.49194267409E+02
 0.56949251643E+02 0.62262821569E+02 0.62159524937E+02 0.54505091643E+02 0.39141244952E+02
 0.18517409572E+02 -.25955952721E+01 -.18449009051E+02 -.24339001782E+02 -.18449009051E+02
 -.25955952721E+01 0.18517409572E+02 0.39141244952E+02 0.54505091643E+02 0.62159524937E+02
 0.62262821569E+02 0.56949251643E+02 0.49194267409E+02 0.41163793920E+02 0.33627849660E+02
 0.26990175989E+02 0.21421743008E+02 0.16921795720E+02 0.13383585602E+02 0.10651975905E+02
 0.85664878776E+01 0.69867778245E+01 0.58016971123E+01 0.49278759643E+01 0.43046542572E+01
 0.38889840785E+01 0.36514488611E+01 0.34974645342E+01 0.35742887951E+01 0.38108239304E+01
 0.42248507518E+01 0.48458284906E+01 0.57169153761E+01 0.68990608755E+01 0.84762740203E+01
 0.10560867366E+02 0.13294960279E+02 0.16841297996E+02 0.21357278988E+02 0.26950865315E+02
 0.33621372156E+02 0.41191857392E+02 0.49246410037E+02 0.56965468457E+02 0.62038885128E+02
 0.61406228967E+02 0.52905016974E+02 0.36429593043E+02 0.14573076254E+02 -.76780147736E+01
 -.24339001782E+02 -.30521503697E+02 -.24339001782E+02 -.76780147736E+01 0.14573076254E+02
 0.36429593043E+02 0.52905016974E+02 0.61406228967E+02 0.62038885128E+02 0.56965468457E+02
 0.49246410037E+02 0.41191857392E+02 0.33621372156E+02 0.26950865315E+02 0.21357278988E+02
 0.16841297996E+02 0.13294960279E+02 0.10560867366E+02 0.84762740203E+01 0.68990608755E+01
 0.57169153761E+01 0.48458284906E+01 0.42248507518E+01 0.38108239304E+01 0.35742887951E+01
 0.35742887951E+01 0.36514488611E+01 0.38889840785E+01 0.43046542572E+01 0.49278759643E+01
 0.58016971123E+01 0.69867778245E+01 0.85664878776E+01 0.10651975905E+02 0.13383585602E+02
 0.16921795720E+02 0.21421743008E+02 0.26990175989E+02 0.33627849660E+02 0.41163793920E+02
 0.49194267409E+02 0.56949251643E+02 0.62262821569E+02 0.62159524937E+02 0.54505091643E+02
 0.39141244952E+02 0.18517409572E+02 -.25955952721E+01 -.18449009051E+02 -.24339001782E+02
 -.18449009051E+02 -.25955952721E+01 0.18517409572E+02 0.39141244952E+02 0.54505091643E+02
 0.62159524937E+02 0.62262821569E+02 0.56949251643E+02 0.49194267409E+02 0.41163793920E+02
 0.33627849660E+02 0.26990175989E+02 0.21421743008E+02 0.16921795720E+02 0.13383585602E+02
 0.10651975905E+02 0.85664878776E+01 0.69867778245E+01 0.58016971123E+01 0.49278759643E+01
 0.43046542572E+01 0.38889840785E+01 0.36514488611E+01 0.38108239304E+01 0.38889840785E+01
 0.41294928329E+01 0.45500261800E+01 0.51798208383E+01 0.60615044888E+01 0.72547599435E+01
 0.88409420954E+01 0.10927638304E+02 0.13649803771E+02 0.17161011594E+02 0.21609360447E+02
 0.27097369613E+02 0.33628916595E+02 0.41048851152E+02 0.48986689799E+02 0.56786627517E+02
 0.62689491637E+02 0.63975625799E+02 0.58597977964E+02 0.46258972251E+02 0.29012583564E+02
 0.11030697572E+02 -.25955952721E+01 -.76780147736E+01 -.25955952721E+01 0.11030697572E+02
 0.29012583564E+02 0.46258972251E+02 0.58597977964E+02 0.63975625799E+02 0.62689491637E+02
 0.56786627517E+02 0.48986689799E+02 0.41048851152E+02 0.33628916595E+02 0.27097369613E+02
 0.21609360447E+02 0.17161011594E+02 0.13649803771E+02 0.10927638304E+02 0.88409420954E+01
 0.72547599435E+01 0.60615044888E+01 0.51798208383E+01 0.45500261800E+01 0.41294928329E+01
 0.38889840785E+01 0.42248507518E+01 0.43046542572E+01 0.45500261800E+01 0.49784199444E+01
 0.56185936225E+01 0.65121852111E+01 0.77169013750E+01 0.93104338371E+01 0.11394235272E+02
 0.14094154604E+02 0.17552067041E+02 0.21903791104E+02 0.27243313479E+02 0.33576470225E+02
 0.40768605419E+02 0.48495453662E+02 0.56212454547E+02 0.62722086218E+02 0.65746634725E+02
 0.63391154887E+02 0.55180480220E+02 0.42615214712E+02 0.29012583564E+02 0.18517409572E+02
 0.14573076254E+02 0.18517409572E+02 0.29012583564E+02 0.42615214712E+02 0.55180480220E+02
 0.63391154887E+02 0.65746634725E+02 0.62722086218E+02 0.56212454547E+02 0.48495453662E+02
 0.40768605419E+02 0.33576470225E+02 0.27243313479E+02 0.21903791104E+02 0.17552067041E+02
 0.14094154604E+02 0.11394235272E+02 0.93104338371E+01 0.77169013750E+01 0.65121852111E+01
 0.56185936225E+01 0.49784199444E+01 0.45500261800E+01 0.43046542572E+01 0.48458284906E+01
 0.49278759643E+01 0.51798208383E+01 0.56185936225E+01 0.62718881516E+01 0.71793745485E+01
 0.83953226358E+01 0.99917318690E+01 0.12061170261E+02 0.14716722851E+02 0.18083967859E+02
 0.22281200556E+02 0.27388696913E+02 0.33410336775E+02 0.40230980911E+02 0.47576249650E+02
 0.54989063134E+02 0.61745658698E+02 0.66244160742E+02 0.66813380754E+02 0.62822446668E+02
 0.55180480220E+02 0.46258972251E+02 0.39141244952E+02 0.36429593043E+02 0.39141244952E+02
 0.46258972251E+02 0.55180480220E+02 0.62822446668E+02 0.66813380754E+02 0.66244160742E+02
 0.61745658698E+02 0.54989063134E+02 0.47576249650E+02 0.40230980911E+02 0.33410336775E+02
 0.27388696913E+02 0.22281200556E+02 0.18083967859E+02 0.14716722851E+02 0.12061170261E+02
 0.99917318690E+01 0.83953226358E+01 0.71793745485E+01 0.62718881516E+01 0.56185936225E+01
 0.51798208383E+01 0.49278759643E+01 0.57169153761E+01 0.58016971123E+01 0.60615044888E+01
 0.65121852111E+01 0.71793745485E+01 0.80992800753E+01 0.93207475318E+01 0.10907688090E+02
 0.12941020021E+02 0.15517867581E+02 0.18743819703E+02 0.22715471778E+02 0.27494769677E+02
 0.33078731308E+02 0.39367104634E+02 0.46132007538E+02 0.53000100412E+02 0.59463744157E+02
 0.64688017257E+02 0.67375522471E+02 0.66813380754E+02 0.63391154887E+02 0.58597977964E+02
 0.54505091643E+02 0.52905016974E+02 0.54505091643E+02 0.58597977964E+02 0.63391154887E+02
 0.66813380754E+02 0.67375522471E+02 0.64688017257E+02 0.59463744157E+02 0.53000100412E+02
 0.46132007538E+02 0.39367104634E+02 0.33078731308E+02 0.27494769677E+02 0.22715471778E+02
 0.18743819703E+02 0.15517867581E+02 0.12941020021E+02 0.10907688090E+02 0.93207475318E+01
 0.80992800753E+01 0.71793745485E+01 0.65121852111E+01 0.60615044888E+01 0.58016971123E+01
 0.68990608755E+01 0.69867778245E+01 0.72547599435E+01 0.77169013750E+01 0.83953226358E+01
 0.93207475318E+01 0.10534152101E+02 0.12088766343E+02 0.14051391346E+02 0.16500978130E+02
 0.19521152723E+02 0.23184900484E+02 0.27533519921E+02 0.32553704550E+02 0.38154937373E+02
 0.44149112306E+02 0.50238937153E+02 0.56027901388E+02 0.61061697765E+02 0.64688017257E+02
 0.66244160742E+02 0.65746634725E+02 0.63975625799E+02 0.62159524937E+02 0.61406228967E+02
 0.62159524937E+02 0.63975625799E+02 0.65746634725E+02 0.66244160742E+02 0.64688017257E+02
 0.61061697765E+02 0.56027901388E+02 0.50238937153E+02 0.44149112306E+02 0.38154937373E+02
 0.32553704550E+02 0.27533519921E+02 0.23184900484E+02 0.19521152723E+02 0.16500978130E+02
 0.14051391346E+02 0.12088766343E+02 0.10534152101E+02 0.93207475318E+01 0.83953226358E+01
 0.77169013750E+01 0.72547599435E+01 0.69867778245E+01 0.84762740203E+01 0.85664878776E+01
 0.88409420954E+01 0.93104338371E+01 0.99917318690E+01 0.10907688090E+02 0.12088766343E+02
 0.13575076837E+02 0.15417551124E+02 0.17676223501E+02 0.20413087802E+02 0.23678659542E+02
 0.27494769677E+02 0.31837651003E+02 0.36623540310E+02 0.41697384961E+02 0.46827652493E+02
 0.51715332711E+02 0.56027901388E+02 0.59463744157E+02 0.61745658698E+02 0.62722086218E+02
 0.62689491637E+02 0.62262821569E+02 0.62038885128E+02 0.62262821569E+02 0.62689491637E+02
 0.62722086218E+02 0.61745658698E+02 0.59463744157E+02 0.56027901388E+02 0.51715332711E+02
 0.46827652493E+02 0.41697384961E+02 0.36623540310E+02 0.31837651003E+02 0.27494769677E+02
 0.23678659542E+02 0.20413087802E+02 0.17676223501E+02 0.15417551124E+02 0.13575076837E+02
 0.12088766343E+02 0.10907688090E+02 0.99917318690E+01 0.93104338371E+01 0.88409420954E+01
 0.85664878776E+01 0.10560867366E+02 0.10651975905E+02 0.10927638304E+02 0.11394235272E+02
 0.12061170261E+02 0.12941020021E+02 0.14051391346E+02 0.15417551124E+02 0.17074037102E+02
 0.19063066201E+02 0.21427836345E+02 0.24200657230E+02 0.27388696913E+02 0.30961438095E+02
 0.34842302818E+02 0.38904550484E+02 0.42971897618E+02 0.46827652493E+02 0.50238937153E+02
 0.53000100412E+02 0.54989063134E+02 0.56212454547E+02 0.56786627517E+02 0.56949251643E+02
 0.56965468457E+02 0.56949251643E+02 0.56786627517E+02 0.56212454547E+02 0.54989063134E+02
 0.53000100412E+02 0.50238937153E+02 0.46827652493E+02 0.42971897618E+02 0.38904550484E+02
 0.34842302818E+02 0.30961438095E+02 0.27388696913E+02 0.24200657230E+02 0.21427836345E+02
 0.19063066201E+02 0.17074037102E+02 0.15417551124E+02 0.14051391346E+02 0.12941020021E+02
 0.12061170261E+02 0.11394235272E+02 0.10927638304E+02 0.10651975905E+02 0.13294960279E+02
 0.13383585602E+02 0.13649803771E+02 0.14094154604E+02 0.14716722851E+02 0.15517867581E+02
 0.16500978130E+02 0.17676223501E+02 0.19063066201E+02 0.20689143222E+02 0.22584072796E+02
 0.24768784166E+02 0.27243313479E+02 0.29977026865E+02 0.32903931007E+02 0.35923276522E+02
 0.38904550484E+02 0.41697384961E+02 0.44149112306E+02 0.46132007538E+02 0.47576249650E+02
 0.48495453662E+02 0.48986689799E+02 0.49194267409E+02 0.49246410037E+02 0.49194267409E+02
 0.48986689799E+02 0.48495453662E+02 0.47576249650E+02 0.46132007538E+02 0.44149112306E+02
 0.41697384961E+02 0.38904550484E+02 0.35923276522E+02 0.32903931007E+02 0.29977026865E+02