PROCAR lm decomposed
# of k-points:   10         # of bands:   22         # of ions:    8

 k-point     1 :    0.00000000 0.00000000 0.00000000     weight = 0.00800000

band     1 # energy   -6.13216894 # occ.  2.00000000
 
ion      s     py     pz     px    dxy    dyz    dz2    dxz  x2-y2    tot
    1  0.054  0.000  0.000  0.000  0.000  0.000  0.000  0.000  0.000  0.054
    2  0.054  0.000  0.000  0.000  0.000  0.000  0.000  0.000  0.000  0.054
    3  0.054  0.000  0.000  0.000  0.000  0.000  0.000  0.000  0.000  0.054
    4  0.054  0.000  0.000  0.000  0.000  0.000  0.000  0.000  0.000  0.054
    5  0.054  0.000  0.000  0.000  0.000  0.000  0.000  0.000  0.000  0.054
    6  0.054  0.000  0.000  0.000  0.000  0.000  0.000  0.000  0.000  0.054
    7  0.054  0.000  0.000  0.000  0.000  0.000  0.000  0.000  0.000  0.054
    8  0.054  0.000  0.000  0.000  0.000  0.000  0.000  0.000  0.000  0.054
tot    0.429  0.000  0.000  0.000  0.000  0.000  0.000  0.000  0.000  0.429
 
band     2 # energy   -1.98771733 # occ.  2.00000000
 
ion      s     py     pz     px    dxy    dyz    dz2    dxz  x2-y2    tot
    1  0.119  0.002  0.003  0.001  0.000  0.000  0.000  0.000  0.000  0.125
    2  0.014  0.002  0.003  0.001  0.000  0.000  0.000  0.000  0.000  0.020
    3  0.136  0.002  0.003  0.001  0.000  0.000  0.000  0.000  0.000  0.142
    4  0.014  0.002  0.003  0.001  0.000  0.000  0.000  0.000  0.000  0.020
    5  0.004  0.000  0.013  0.004  0.000  0.000  0.000  0.000  0.000  0.021
    6  0.030  0.000  0.013  0.004  0.000  0.000  0.000  0.000  0.000  0.047
    7  0.047  0.000  0.013  0.004  0.000  0.000  0.000  0.000  0.000  0.064
    8  0.023  0.000  0.013  0.004  0.000  0.000  0.000  0.000  0.000  0.040
tot    0.388  0.009  0.062  0.021  0.000  0.000  0.000  0.000  0.000  0.480
 
band     3 # energy   -1.98771733 # occ.  2.00000000
 
ion      s     py     pz     px    dxy    dyz    dz2    dxz  x2-y2    tot
    1  0.003  0.005  0.001  0.008  0.000  0.000  0.000  0.000  0.000  0.017
    2  0.064  0.005  0.001  0.008  0.000  0.000  0.000  0.000  0.000  0.077
    3  0.047  0.005  0.001  0.008  0.000  0.000  0.000  0.000  0.000  0.060
    4  0.053  0.005  0.001  0.008  0.000  0.000  0.000  0.000  0.000  0.066
    5  0.000  0.003  0.002  0.005  0.000  0.000  0.000  0.000  0.000  0.010
    6  0.137  0.003  0.002  0.005  0.000  0.000  0.000  0.000  0.000  0.147
    7  0.076  0.003  0.002  0.005  0.000  0.000  0.000  0.000  0.000  0.086
    8  0.008  0.003  0.002  0.005  0.000  0.000  0.000  0.000  0.000  0.018
tot    0.388  0.032  0.010  0.050  0.000  0.000  0.000  0.000  0.000  0.480
 
band     4 # energy   -1.98771733 # occ.  2.00000000
 
ion      s     py     pz     px    dxy    dyz    dz2    dxz  x2-y2    tot
    1  0.024  0.007  0.006  0.003  0.000  0.000  0.000  0.000  0.000  0.041
    2  0.000  0.007  0.006  0.003  0.000  0.000  0.000  0.000  0.000  0.017
    3  0.017  0.007  0.006  0.003  0.000  0.000  0.000  0.000  0.000  0.034
    4  0.059  0.007  0.006  0.003  0.000  0.000  0.000  0.000  0.000  0.076
    5  0.206  0.004  0.001  0.002  0.000  0.000  0.000  0.000  0.000  0.212
    6  0.050  0.004  0.001  0.002  0.000  0.000  0.000  0.000  0.000  0.056
    7  0.012  0.004  0.001  0.002  0.000  0.000  0.000  0.000  0.000  0.017
    8  0.021  0.004  0.001  0.002  0.000  0.000  0.000  0.000  0.000  0.027
tot    0.388  0.043  0.029  0.020  0.000  0.000  0.000  0.000  0.000  0.480
 
band     5 # energy   -1.98771733 # occ.  2.00000000
 
ion      s     py     pz     px    dxy    dyz    dz2    dxz  x2-y2    tot
    1  0.030  0.005  0.001  0.000  0.000  0.000  0.000  0.000  0.000  0.035
    2  0.141  0.005  0.001  0.000  0.000  0.000  0.000  0.000  0.000  0.146
    3  0.077  0.005  0.001  0.000  0.000  0.000  0.000  0.000  0.000  0.083
    4  0.049  0.005  0.001  0.000  0.000  0.000  0.000  0.000  0.000  0.054
    5  0.014  0.010  0.005  0.002  0.000  0.000  0.000  0.000  0.000  0.031
    6  0.008  0.010  0.005  0.002  0.000  0.000  0.000  0.000  0.000  0.026
    7  0.028  0.010  0.005  0.002  0.000  0.000  0.000  0.000  0.000  0.046
    8  0.041  0.010  0.005  0.002  0.000  0.000  0.000  0.000  0.000  0.059
tot    0.388  0.060  0.022  0.010  0.000  0.000  0.000  0.000  0.000  0.480
 
band     6 # energy   -1.98771733 # occ.  2.00000000
 
ion      s     py     pz     px    dxy    dyz    dz2    dxz  x2-y2    tot
    1  0.060  0.001  0.000  0.010  0.000  0.000  0.000  0.000  0.000  0.071
    2  0.046  0.001  0.000  0.010  0.000  0.000  0.000  0.000  0.000  0.057
    3  0.001  0.001  0.000  0.010  0.000  0.000  0.000  0.000  0.000  0.013
    4  0.095  0.001  0.000  0.010  0.000  0.000  0.000  0.000  0.000  0.106
    5  0.046  0.004  0.002  0.006  0.000  0.000  0.000  0.000  0.000  0.058
    6  0.043  0.004  0.002  0.006  0.000  0.000  0.000  0.000  0.000  0.055
    7  0.030  0.004  0.002  0.006  0.000  0.000  0.000  0.000  0.000  0.042
    8  0.067  0.004  0.002  0.006  0.000  0.000  0.000  0.000  0.000  0.079
tot    0.388  0.017  0.008  0.067  0.000  0.000  0.000  0.000  0.000  0.480
 
band     7 # energy   -1.98771733 # occ.  2.00000000
 
ion      s     py     pz     px    dxy    dyz    dz2    dxz  x2-y2    tot
    1  0.055  0.003  0.012  0.000  0.000  0.000  0.000  0.000  0.000  0.071
    2  0.026  0.003  0.012  0.000  0.000  0.000  0.000  0.000  0.000  0.042
    3  0.013  0.003  0.012  0.000  0.000  0.000  0.000  0.000  0.000  0.029
    4  0.022  0.003  0.012  0.000  0.000  0.000  0.000  0.000  0.000  0.038
    5  0.021  0.002  0.001  0.004  0.000  0.000  0.000  0.000  0.000  0.028
    6  0.023  0.002  0.001  0.004  0.000  0.000  0.000  0.000  0.000  0.030
    7  0.099  0.002  0.001  0.004  0.000  0.000  0.000  0.000  0.000  0.105
    8  0.130  0.002  0.001  0.004  0.000  0.000  0.000  0.000  0.000  0.137
tot    0.388  0.023  0.053  0.016  0.000  0.000  0.000  0.000  0.000  0.480
 
band     8 # energy    2.97758902 # occ.  2.00000000
 
ion      s     py     pz     px    dxy    dyz    dz2    dxz  x2-y2    tot
    1  0.000  0.019  0.031  0.013  0.000  0.000  0.000  0.000  0.000  0.063
    2  0.000  0.016  0.020  0.013  0.000  0.000  0.000  0.000  0.000  0.049
    3  0.000  0.019  0.020  0.002  0.000  0.000  0.000  0.000  0.000  0.040
    4  0.000  0.016  0.031  0.002  0.000  0.000  0.000  0.000  0.000  0.048
    5  0.000  0.019  0.006  0.020  0.000  0.000  0.000  0.000  0.000  0.046
    6  0.000  0.038  0.003  0.020  0.000  0.000  0.000  0.000  0.000  0.060
    7  0.000  0.019  0.003  0.014  0.000  0.000  0.000  0.000  0.000  0.036
    8  0.000  0.038  0.006  0.014  0.000  0.000  0.000  0.000  0.000  0.058
tot    0.000  0.182  0.119  0.099  0.000  0.000  0.000  0.000  0.000  0.400
 
band     9 # energy    2.97758902 # occ.  2.00000000
 
ion      s     py     pz     px    dxy    dyz    dz2    dxz  x2-y2    tot
    1  0.000  0.007  0.019  0.029  0.000  0.000  0.000  0.000  0.000  0.055
    2  0.000  0.003  0.022  0.029  0.000  0.000  0.000  0.000  0.000  0.055
    3  0.000  0.007  0.022  0.020  0.000  0.000  0.000  0.000  0.000  0.049
    4  0.000  0.003  0.019  0.020  0.000  0.000  0.000  0.000  0.000  0.042
    5  0.000  0.014  0.008  0.029  0.000  0.000  0.000  0.000  0.000  0.051
    6  0.000  0.037  0.010  0.029  0.000  0.000  0.000  0.000  0.000  0.076
    7  0.000  0.014  0.010  0.001  0.000  0.000  0.000  0.000  0.000  0.025
    8  0.000  0.037  0.008  0.001  0.000  0.000  0.000  0.000  0.000  0.047
tot    0.000  0.124  0.118  0.158  0.000  0.000  0.000  0.000  0.000  0.400
 
band    10 # energy    2.97758902 # occ.  2.00000000
 
ion      s     py     pz     px    dxy    dyz    dz2    dxz  x2-y2    tot
    1  0.000  0.002  0.015  0.005  0.000  0.000  0.000  0.000  0.000  0.022
    2  0.000  0.002  0.050  0.005  0.000  0.000  0.000  0.000  0.000  0.056
    3  0.000  0.002  0.050  0.026  0.000  0.000  0.000  0.000  0.000  0.078
    4  0.000  0.002  0.015  0.026  0.000  0.000  0.000  0.000  0.000  0.043
    5  0.000  0.021  0.001  0.039  0.000  0.000  0.000  0.000  0.000  0.061
    6  0.000  0.007  0.011  0.039  0.000  0.000  0.000  0.000  0.000  0.057
    7  0.000  0.021  0.011  0.021  0.000  0.000  0.000  0.000  0.000  0.053
    8  0.000  0.007  0.001  0.021  0.000  0.000  0.000  0.000  0.000  0.029
tot    0.000  0.064  0.155  0.181  0.000  0.000  0.000  0.000  0.000  0.400
 
band    11 # energy    2.97758902 # occ.  2.00000000
 
ion      s     py     pz     px    dxy    dyz    dz2    dxz  x2-y2    tot
    1  0.000  0.041  0.012  0.005  0.000  0.000  0.000  0.000  0.000  0.057
    2  0.000  0.025  0.003  0.005  0.000  0.000  0.000  0.000  0.000  0.032
    3  0.000  0.041  0.003  0.015  0.000  0.000  0.000  0.000  0.000  0.059
    4  0.000  0.025  0.012  0.015  0.000  0.000  0.000  0.000  0.000  0.051
    5  0.000  0.013  0.049  0.000  0.000  0.000  0.000  0.000  0.000  0.062
    6  0.000  0.009  0.015  0.000  0.000  0.000  0.000  0.000  0.000  0.024
    7  0.000  0.013  0.015  0.014  0.000  0.000  0.000  0.000  0.000  0.042
    8  0.000  0.009  0.049  0.014  0.000  0.000  0.000  0.000  0.000  0.072
tot    0.000  0.176  0.156  0.068  0.000  0.000  0.000  0.000  0.000  0.400
 
band    12 # energy    2.97758902 # occ.  2.00000000
 
ion      s     py     pz     px    dxy    dyz    dz2    dxz  x2-y2    tot
    1  0.000  0.025  0.009  0.026  0.000  0.000  0.000  0.000  0.000  0.060
    2  0.000  0.030  0.004  0.026  0.000  0.000  0.000  0.000  0.000  0.060
    3  0.000  0.025  0.004  0.006  0.000  0.000  0.000  0.000  0.000  0.035
    4  0.000  0.030  0.009  0.006  0.000  0.000  0.000  0.000  0.000  0.045
    5  0.000  0.026  0.019  0.007  0.000  0.000  0.000  0.000  0.000  0.052
    6  0.000  0.005  0.028  0.007  0.000  0.000  0.000  0.000  0.000  0.040
    7  0.000  0.026  0.028  0.015  0.000  0.000  0.000  0.000  0.000  0.069
    8  0.000  0.005  0.019  0.015  0.000  0.000  0.000  0.000  0.000  0.039
tot    0.000  0.172  0.118  0.110  0.000  0.000  0.000  0.000  0.000  0.400
 
band    13 # energy    2.97758902 # occ.  2.00000000
 
ion      s     py     pz     px    dxy    dyz    dz2    dxz  x2-y2    tot
    1  0.000  0.006  0.015  0.022  0.000  0.000  0.000  0.000  0.000  0.042
    2  0.000  0.024  0.002  0.022  0.000  0.000  0.000  0.000  0.000  0.048
    3  0.000  0.006  0.002  0.032  0.000  0.000  0.000  0.000  0.000  0.040
    4  0.000  0.024  0.015  0.032  0.000  0.000  0.000  0.000  0.000  0.071
    5  0.000  0.006  0.017  0.005  0.000  0.000  0.000  0.000  0.000  0.027
    6  0.000  0.005  0.034  0.005  0.000  0.000  0.000  0.000  0.000  0.043
    7  0.000  0.006  0.034  0.034  0.000  0.000  0.000  0.000  0.000  0.074
    8  0.000  0.005  0.017  0.034  0.000  0.000  0.000  0.000  0.000  0.056
tot    0.000  0.082  0.133  0.185  0.000  0.000  0.000  0.000  0.000  0.400
 
band    14 # energy    5.83604458 # occ.  2.00000000
 
ion      s     py     pz     px    dxy    dyz    dz2    dxz  x2-y2    tot
    1  0.000  0.018  0.020  0.017  0.000  0.000  0.000  0.000  0.000  0.055
    2  0.000  0.018  0.020  0.017  0.000  0.000  0.000  0.000  0.000  0.055
    3  0.000  0.018  0.020  0.017  0.000  0.000  0.000  0.000  0.000  0.055
    4  0.000  0.018  0.020  0.017  0.000  0.000  0.000  0.000  0.000  0.055
    5  0.000  0.018  0.020  0.017  0.000  0.000  0.000  0.000  0.000  0.055
    6  0.000  0.018  0.020  0.017  0.000  0.000  0.000  0.000  0.000  0.055
    7  0.000  0.018  0.020  0.017  0.000  0.000  0.000  0.000  0.000  0.055
    8  0.000  0.018  0.020  0.017  0.000  0.000  0.000  0.000  0.000  0.055
tot    0.000  0.146  0.159  0.133  0.000  0.000  0.000  0.000  0.000  0.439
 
band    15 # energy    5.83604459 # occ.  2.00000000
 
ion      s     py     pz     px    dxy    dyz    dz2    dxz  x2-y2    tot
    1  0.000  0.001  0.025  0.029  0.000  0.000  0.000  0.000  0.000  0.055
    2  0.000  0.001  0.025  0.029  0.000  0.000  0.000  0.000  0.000  0.055
    3  0.000  0.001  0.025  0.029  0.000  0.000  0.000  0.000  0.000  0.055
    4  0.000  0.001  0.025  0.029  0.000  0.000  0.000  0.000  0.000  0.055
    5  0.000  0.001  0.025  0.029  0.000  0.000  0.000  0.000  0.000  0.055
    6  0.000  0.001  0.025  0.029  0.000  0.000  0.000  0.000  0.000  0.055
    7  0.000  0.001  0.025  0.029  0.000  0.000  0.000  0.000  0.000  0.055
    8  0.000  0.001  0.025  0.029  0.000  0.000  0.000  0.000  0.000  0.055
tot    0.000  0.010  0.200  0.229  0.000  0.000  0.000  0.000  0.000  0.439
 
band    16 # energy    5.83604459 # occ.  2.00000000
 
ion      s     py     pz     px    dxy    dyz    dz2    dxz  x2-y2    tot
    1  0.000  0.035  0.010  0.010  0.000  0.000  0.000  0.000  0.000  0.055
    2  0.000  0.035  0.010  0.010  0.000  0.000  0.000  0.000  0.000  0.055
    3  0.000  0.035  0.010  0.010  0.000  0.000  0.000  0.000  0.000  0.055
    4  0.000  0.035  0.010  0.010  0.000  0.000  0.000  0.000  0.000  0.055
    5  0.000  0.035  0.010  0.010  0.000  0.000  0.000  0.000  0.000  0.055
    6  0.000  0.035  0.010  0.010  0.000  0.000  0.000  0.000  0.000  0.055
    7  0.000  0.035  0.010  0.010  0.000  0.000  0.000  0.000  0.000  0.055
    8  0.000  0.035  0.010  0.010  0.000  0.000  0.000  0.000  0.000  0.055
tot    0.000  0.282  0.080  0.076  0.000  0.000  0.000  0.000  0.000  0.439
 
band    17 # energy    6.55312857 # occ.  0.00000000
 
ion      s     py     pz     px    dxy    dyz    dz2    dxz  x2-y2    tot
    1  0.001  0.000  0.006  0.003  0.000  0.000  0.000  0.000  0.000  0.010
    2  0.027  0.000  0.006  0.003  0.000  0.000  0.000  0.000  0.000  0.036
    3  0.005  0.000  0.006  0.003  0.000  0.000  0.000  0.000  0.000  0.014
    4  0.019  0.000  0.006  0.003  0.000  0.000  0.000  0.000  0.000  0.028
    5  0.011  0.000  0.002  0.007  0.000  0.000  0.000  0.000  0.000  0.020
    6  0.013  0.000  0.002  0.007  0.000  0.000  0.000  0.000  0.000  0.022
    7  0.012  0.000  0.002  0.007  0.000  0.000  0.000  0.000  0.000  0.021
    8  0.015  0.000  0.002  0.007  0.000  0.000  0.000  0.000  0.000  0.024
tot    0.104  0.002  0.031  0.038  0.000  0.000  0.000  0.000  0.000  0.175
 
band    18 # energy    6.55312857 # occ.  0.00000000
 
ion      s     py     pz     px    dxy    dyz    dz2    dxz  x2-y2    tot
    1  0.017  0.005  0.002  0.006  0.000  0.000  0.000  0.000  0.000  0.029
    2  0.012  0.005  0.002  0.006  0.000  0.000  0.000  0.000  0.000  0.025
    3  0.001  0.005  0.002  0.006  0.000  0.000  0.000  0.000  0.000  0.014
    4  0.001  0.005  0.002  0.006  0.000  0.000  0.000  0.000  0.000  0.013
    5  0.003  0.002  0.003  0.000  0.000  0.000  0.000  0.000  0.000  0.008
    6  0.021  0.002  0.003  0.000  0.000  0.000  0.000  0.000  0.000  0.026
    7  0.046  0.002  0.003  0.000  0.000  0.000  0.000  0.000  0.000  0.052
    8  0.004  0.002  0.003  0.000  0.000  0.000  0.000  0.000  0.000  0.009
tot    0.104  0.026  0.023  0.023  0.000  0.000  0.000  0.000  0.000  0.175
 
band    19 # energy    6.55312858 # occ.  0.00000000
 
ion      s     py     pz     px    dxy    dyz    dz2    dxz  x2-y2    tot
    1  0.023  0.000  0.003  0.002  0.000  0.000  0.000  0.000  0.000  0.028
    2  0.005  0.000  0.003  0.002  0.000  0.000  0.000  0.000  0.000  0.010
    3  0.044  0.000  0.003  0.002  0.000  0.000  0.000  0.000  0.000  0.049
    4  0.004  0.000  0.003  0.002  0.000  0.000  0.000  0.000  0.000  0.009
    5  0.015  0.001  0.007  0.005  0.000  0.000  0.000  0.000  0.000  0.028
    6  0.002  0.001  0.007  0.005  0.000  0.000  0.000  0.000  0.000  0.015
    7  0.008  0.001  0.007  0.005  0.000  0.000  0.000  0.000  0.000  0.021
    8  0.002  0.001  0.007  0.005  0.000  0.000  0.000  0.000  0.000  0.016
tot    0.104  0.004  0.040  0.028  0.000  0.000  0.000  0.000  0.000  0.175
 
band    20 # energy    6.55312858 # occ.  0.00000000
 
ion      s     py     pz     px    dxy    dyz    dz2    dxz  x2-y2    tot
    1  0.001  0.004  0.006  0.000  0.000  0.000  0.000  0.000  0.000  0.012
    2  0.010  0.004  0.006  0.000  0.000  0.000  0.000  0.000  0.000  0.021
    3  0.019  0.004  0.006  0.000  0.000  0.000  0.000  0.000  0.000  0.029
    4  0.013  0.004  0.006  0.000  0.000  0.000  0.000  0.000  0.000  0.023
    5  0.020  0.002  0.004  0.002  0.000  0.000  0.000  0.000  0.000  0.027
    6  0.034  0.002  0.004  0.002  0.000  0.000  0.000  0.000  0.000  0.041
    7  0.001  0.002  0.004  0.002  0.000  0.000  0.000  0.000  0.000  0.009
    8  0.005  0.002  0.004  0.002  0.000  0.000  0.000  0.000  0.000  0.013
tot    0.104  0.023  0.041  0.008  0.000  0.000  0.000  0.000  0.000  0.175
 
band    21 # energy    6.55312860 # occ.  0.00000000
 
ion      s     py     pz     px    dxy    dyz    dz2    dxz  x2-y2    tot
    1  0.033  0.002  0.000  0.001  0.000  0.000  0.000  0.000  0.000  0.036
    2  0.015  0.002  0.000  0.001  0.000  0.000  0.000  0.000  0.000  0.018
    3  0.008  0.002  0.000  0.001  0.000  0.000  0.000  0.000  0.000  0.012
    4  0.029  0.002  0.000  0.001  0.000  0.000  0.000  0.000  0.000  0.032
    5  0.001  0.013  0.000  0.002  0.000  0.000  0.000  0.000  0.000  0.015
    6  0.008  0.013  0.000  0.002  0.000  0.000  0.000  0.000  0.000  0.023
    7  0.008  0.013  0.000  0.002  0.000  0.000  0.000  0.000  0.000  0.023
    8  0.001  0.013  0.000  0.002  0.000  0.000  0.000  0.000  0.000  0.016
tot    0.104  0.058  0.001  0.012  0.000  0.000  0.000  0.000  0.000  0.175
 
band    22 # energy    6.55312861 # occ.  0.00000000
 
ion      s     py     pz     px    dxy    dyz    dz2    dxz  x2-y2    tot
    1  0.003  0.007  0.001  0.006  0.000  0.000  0.000  0.000  0.000  0.017
    2  0.009  0.007  0.001  0.006  0.000  0.000  0.000  0.000  0.000  0.023
    3  0.000  0.007  0.001  0.006  0.000  0.000  0.000  0.000  0.000  0.014
    4  0.011  0.007  0.001  0.006  0.000  0.000  0.000  0.000  0.000  0.025
    5  0.029  0.000  0.001  0.003  0.000  0.000  0.000  0.000  0.000  0.033
    6  0.000  0.000  0.001  0.003  0.000  0.000  0.000  0.000  0.000  0.004
    7  0.002  0.000  0.001  0.003  0.000  0.000  0.000  0.000  0.000  0.006
    8  0.050  0.000  0.001  0.003  0.000  0.000  0.000  0.000  0.000  0.054
tot    0.104  0.030  0.007  0.034  0.000  0.000  0.000  0.000  0.000  0.175
 

 k-point     2 :    0.20000000 0.00000000 0.00000000     weight = 0.04800000

band     1 # energy   -5.95725617 # occ.  2.00000000
 
ion      s     py     pz     px    dxy    dyz    dz2    dxz  x2-y2    tot
    1  0.053  0.000  0.000  0.000  0.000  0.000  0.000  0.000  0.000  0.054
    2  0.053  0.000  0.000  0.000  0.000  0.000  0.000  0.000  0.000  0.054
    3  0.053  0.000  0.000  0.000  0.000  0.000  0.000  0.000  0.000  0.054
    4  0.053  0.000  0.000  0.000  0.000  0.000  0.000  0.000  0.000  0.054
    5  0.053  0.000  0.000  0.000  0.000  0.000  0.000  0.000  0.000  0.054
    6  0.053  0.000  0.000  0.000  0.000  0.000  0.000  0.000  0.000  0.054
    7  0.053  0.000  0.000  0.000  0.000  0.000  0.000  0.000  0.000  0.054
    8  0.053  0.000  0.000  0.000  0.000  0.000  0.000  0.000  0.000  0.054
tot    0.428  0.000  0.000  0.004  0.000  0.000  0.000  0.000  0.000  0.431
 
band     2 # energy   -3.41969191 # occ.  2.00000000
 
ion      s     py     pz     px    dxy    dyz    dz2    dxz  x2-y2    tot
    1  0.050  0.000  0.000  0.008  0.000  0.000  0.000  0.000  0.000  0.058
    2  0.050  0.000  0.000  0.008  0.000  0.000  0.000  0.000  0.000  0.058
    3  0.050  0.000  0.000  0.008  0.000  0.000  0.000  0.000  0.000  0.058
    4  0.050  0.000  0.000  0.008  0.000  0.000  0.000  0.000  0.000  0.058
    5  0.050  0.000  0.000  0.008  0.000  0.000  0.000  0.000  0.000  0.058
    6  0.050  0.000  0.000  0.008  0.000  0.000  0.000  0.000  0.000  0.058
    7  0.050  0.000  0.000  0.008  0.000  0.000  0.000  0.000  0.000  0.058
    8  0.050  0.000  0.000  0.008  0.000  0.000  0.000  0.000  0.000  0.058
tot    0.402  0.000  0.000  0.060  0.000  0.000  0.000  0.000  0.000  0.463
 
band     3 # energy   -1.93473039 # occ.  2.00000000
 
ion      s     py     pz     px    dxy    dyz    dz2    dxz  x2-y2    tot
    1  0.040  0.001  0.001  0.000  0.000  0.000  0.000  0.000  0.000  0.042
    2  0.040  0.001  0.001  0.000  0.000  0.000  0.000  0.000  0.000  0.042
    3  0.141  0.002  0.000  0.000  0.000  0.000  0.000  0.000  0.000  0.143
    4  0.141  0.002  0.000  0.000  0.000  0.000  0.000  0.000  0.000  0.143
    5  0.008  0.016  0.004  0.000  0.000  0.000  0.000  0.000  0.000  0.029
    6  0.008  0.016  0.004  0.000  0.000  0.000  0.000  0.000  0.000  0.029
    7  0.009  0.019  0.002  0.000  0.000  0.000  0.000  0.000  0.000  0.029
    8  0.009  0.019  0.002  0.000  0.000  0.000  0.000  0.000  0.000  0.029
tot    0.395  0.075  0.015  0.000  0.000  0.000  0.000  0.000  0.000  0.485
 
band     4 # energy   -1.93473039 # occ.  2.00000000
 
ion      s     py     pz     px    dxy    dyz    dz2    dxz  x2-y2    tot
    1  0.003  0.012  0.010  0.000  0.000  0.000  0.000  0.000  0.000  0.025
    2  0.003  0.012  0.010  0.000  0.000  0.000  0.000  0.000  0.000  0.025
    3  0.004  0.003  0.019  0.000  0.000  0.000  0.000  0.000  0.000  0.026
    4  0.004  0.003  0.019  0.000  0.000  0.000  0.000  0.000  0.000  0.026
    5  0.049  0.000  0.001  0.000  0.000  0.000  0.000  0.000  0.000  0.050
    6  0.049  0.000  0.001  0.000  0.000  0.000  0.000  0.000  0.000  0.050
    7  0.141  0.000  0.001  0.000  0.000  0.000  0.000  0.000  0.000  0.142
    8  0.141  0.000  0.001  0.000  0.000  0.000  0.000  0.000  0.000  0.142
tot    0.395  0.030  0.061  0.000  0.000  0.000  0.000  0.000  0.000  0.485
 
band     5 # energy   -1.93473039 # occ.  2.00000000
 
ion      s     py     pz     px    dxy    dyz    dz2    dxz  x2-y2    tot
    1  0.067  0.006  0.004  0.000  0.000  0.000  0.000  0.000  0.000  0.078
    2  0.067  0.006  0.004  0.000  0.000  0.000  0.000  0.000  0.000  0.078
    3  0.036  0.009  0.002  0.000  0.000  0.000  0.000  0.000  0.000  0.047
    4  0.036  0.009  0.002  0.000  0.000  0.000  0.000  0.000  0.000  0.047
    5  0.080  0.004  0.007  0.000  0.000  0.000  0.000  0.000  0.000  0.092
    6  0.080  0.004  0.007  0.000  0.000  0.000  0.000  0.000  0.000  0.092
    7  0.014  0.000  0.011  0.000  0.000  0.000  0.000  0.000  0.000  0.026
    8  0.014  0.000  0.011  0.000  0.000  0.000  0.000  0.000  0.000  0.026
tot    0.395  0.041  0.050  0.000  0.000  0.000  0.000  0.000  0.000  0.485
 
band     6 # energy   -1.93473039 # occ.  2.00000000
 
ion      s     py     pz     px    dxy    dyz    dz2    dxz  x2-y2    tot
    1  0.088  0.004  0.007  0.000  0.000  0.000  0.000  0.000  0.000  0.099
    2  0.088  0.004  0.007  0.000  0.000  0.000  0.000  0.000  0.000  0.099
    3  0.016  0.009  0.002  0.000  0.000  0.000  0.000  0.000  0.000  0.026
    4  0.016  0.009  0.002  0.000  0.000  0.000  0.000  0.000  0.000  0.026
    5  0.060  0.002  0.010  0.000  0.000  0.000  0.000  0.000  0.000  0.071
    6  0.060  0.002  0.010  0.000  0.000  0.000  0.000  0.000  0.000  0.071
    7  0.034  0.004  0.008  0.000  0.000  0.000  0.000  0.000  0.000  0.046
    8  0.034  0.004  0.008  0.000  0.000  0.000  0.000  0.000  0.000  0.046
tot    0.395  0.035  0.055  0.000  0.000  0.000  0.000  0.000  0.000  0.485
 
band     7 # energy   -0.34854571 # occ.  2.00000000
 
ion      s     py     pz     px    dxy    dyz    dz2    dxz  x2-y2    tot
    1  0.046  0.000  0.000  0.016  0.000  0.000  0.000  0.000  0.000  0.062
    2  0.046  0.000  0.000  0.016  0.000  0.000  0.000  0.000  0.000  0.062
    3  0.046  0.000  0.000  0.016  0.000  0.000  0.000  0.000  0.000  0.062
    4  0.046  0.000  0.000  0.016  0.000  0.000  0.000  0.000  0.000  0.062
    5  0.046  0.000  0.000  0.016  0.000  0.000  0.000  0.000  0.000  0.062
    6  0.046  0.000  0.000  0.016  0.000  0.000  0.000  0.000  0.000  0.062
    7  0.046  0.000  0.000  0.016  0.000  0.000  0.000  0.000  0.000  0.062
    8  0.046  0.000  0.000  0.016  0.000  0.000  0.000  0.000  0.000  0.062
tot    0.369  0.000  0.000  0.130  0.000  0.000  0.000  0.000  0.000  0.499
 
band     8 # energy    2.56880722 # occ.  2.00000000
 
ion      s     py     pz     px    dxy    dyz    dz2    dxz  x2-y2    tot
    1  0.001  0.011  0.026  0.017  0.000  0.000  0.000  0.000  0.000  0.056
    2  0.001  0.011  0.026  0.017  0.000  0.000  0.000  0.000  0.000  0.056
    3  0.000  0.035  0.003  0.000  0.000  0.000  0.000  0.000  0.000  0.038
    4  0.000  0.035  0.003  0.000  0.000  0.000  0.000  0.000  0.000  0.038
    5  0.001  0.004  0.006  0.037  0.000  0.000  0.000  0.000  0.000  0.048
    6  0.001  0.004  0.006  0.037  0.000  0.000  0.000  0.000  0.000  0.048
    7  0.001  0.004  0.005  0.030  0.000  0.000  0.000  0.000  0.000  0.041
    8  0.001  0.004  0.005  0.030  0.000  0.000  0.000  0.000  0.000  0.041
tot    0.005  0.110  0.081  0.169  0.000  0.000  0.000  0.000  0.000  0.365
 
band     9 # energy    2.56880722 # occ.  2.00000000
 
ion      s     py     pz     px    dxy    dyz    dz2    dxz  x2-y2    tot
    1  0.001  0.007  0.002  0.046  0.000  0.000  0.000  0.000  0.000  0.056
    2  0.001  0.007  0.002  0.046  0.000  0.000  0.000  0.000  0.000  0.056
    3  0.001  0.007  0.002  0.023  0.000  0.000  0.000  0.000  0.000  0.032
    4  0.001  0.007  0.002  0.023  0.000  0.000  0.000  0.000  0.000  0.032
    5  0.000  0.034  0.004  0.013  0.000  0.000  0.000  0.000  0.000  0.052
    6  0.000  0.034  0.004  0.013  0.000  0.000  0.000  0.000  0.000  0.052
    7  0.000  0.031  0.007  0.003  0.000  0.000  0.000  0.000  0.000  0.042
    8  0.000  0.031  0.007  0.003  0.000  0.000  0.000  0.000  0.000  0.042
tot    0.005  0.160  0.030  0.169  0.000  0.000  0.000  0.000  0.000  0.365
 
band    10 # energy    2.56880722 # occ.  2.00000000
 
ion      s     py     pz     px    dxy    dyz    dz2    dxz  x2-y2    tot
    1  0.000  0.026  0.018  0.004  0.000  0.000  0.000  0.000  0.000  0.048
    2  0.000  0.026  0.018  0.004  0.000  0.000  0.000  0.000  0.000  0.048
    3  0.000  0.001  0.042  0.003  0.000  0.000  0.000  0.000  0.000  0.047
    4  0.000  0.001  0.042  0.003  0.000  0.000  0.000  0.000  0.000  0.047
    5  0.001  0.004  0.000  0.033  0.000  0.000  0.000  0.000  0.000  0.038
    6  0.001  0.004  0.000  0.033  0.000  0.000  0.000  0.000  0.000  0.038
    7  0.001  0.001  0.003  0.044  0.000  0.000  0.000  0.000  0.000  0.049
    8  0.001  0.001  0.003  0.044  0.000  0.000  0.000  0.000  0.000  0.049
tot    0.005  0.063  0.127  0.169  0.000  0.000  0.000  0.000  0.000  0.365
 
band    11 # energy    2.56880722 # occ.  2.00000000
 
ion      s     py     pz     px    dxy    dyz    dz2    dxz  x2-y2    tot
    1  0.001  0.003  0.002  0.017  0.000  0.000  0.000  0.000  0.000  0.022
    2  0.001  0.003  0.002  0.017  0.000  0.000  0.000  0.000  0.000  0.022
    3  0.002  0.004  0.001  0.059  0.000  0.000  0.000  0.000  0.000  0.065
    4  0.002  0.004  0.001  0.059  0.000  0.000  0.000  0.000  0.000  0.065
    5  0.000  0.006  0.037  0.002  0.000  0.000  0.000  0.000  0.000  0.044
    6  0.000  0.006  0.037  0.002  0.000  0.000  0.000  0.000  0.000  0.044
    7  0.000  0.011  0.032  0.007  0.000  0.000  0.000  0.000  0.000  0.050
    8  0.000  0.011  0.032  0.007  0.000  0.000  0.000  0.000  0.000  0.050
tot    0.005  0.048  0.143  0.169  0.000  0.000  0.000  0.000  0.000  0.365
 
band    12 # energy    3.13560837 # occ.  2.00000000
 
ion      s     py     pz     px    dxy    dyz    dz2    dxz  x2-y2    tot
    1  0.000  0.018  0.032  0.000  0.000  0.000  0.000  0.000  0.000  0.050
    2  0.000  0.018  0.032  0.000  0.000  0.000  0.000  0.000  0.000  0.050
    3  0.000  0.018  0.032  0.000  0.000  0.000  0.000  0.000  0.000  0.050
    4  0.000  0.018  0.032  0.000  0.000  0.000  0.000  0.000  0.000  0.050
    5  0.000  0.029  0.021  0.000  0.000  0.000  0.000  0.000  0.000  0.050
    6  0.000  0.029  0.021  0.000  0.000  0.000  0.000  0.000  0.000  0.050
    7  0.000  0.029  0.021  0.000  0.000  0.000  0.000  0.000  0.000  0.050
    8  0.000  0.029  0.021  0.000  0.000  0.000  0.000  0.000  0.000  0.050
tot    0.000  0.191  0.210  0.000  0.000  0.000  0.000  0.000  0.000  0.400
 
band    13 # energy    3.13560837 # occ.  2.00000000
 
ion      s     py     pz     px    dxy    dyz    dz2    dxz  x2-y2    tot
    1  0.000  0.032  0.018  0.000  0.000  0.000  0.000  0.000  0.000  0.050
    2  0.000  0.032  0.018  0.000  0.000  0.000  0.000  0.000  0.000  0.050
    3  0.000  0.032  0.018  0.000  0.000  0.000  0.000  0.000  0.000  0.050
    4  0.000  0.032  0.018  0.000  0.000  0.000  0.000  0.000  0.000  0.050
    5  0.000  0.021  0.029  0.000  0.000  0.000  0.000  0.000  0.000  0.050
    6  0.000  0.021  0.029  0.000  0.000  0.000  0.000  0.000  0.000  0.050
    7  0.000  0.021  0.029  0.000  0.000  0.000  0.000  0.000  0.000  0.050
    8  0.000  0.021  0.029  0.000  0.000  0.000  0.000  0.000  0.000  0.050
tot    0.000  0.210  0.191  0.000  0.000  0.000  0.000  0.000  0.000  0.400
 
band    14 # energy    4.89662551 # occ.  2.00000000
 
ion      s     py     pz     px    dxy    dyz    dz2    dxz  x2-y2    tot
    1  0.019  0.000  0.000  0.041  0.000  0.000  0.000  0.000  0.000  0.060
    2  0.019  0.000  0.000  0.041  0.000  0.000  0.000  0.000  0.000  0.060
    3  0.019  0.000  0.000  0.041  0.000  0.000  0.000  0.000  0.000  0.060
    4  0.019  0.000  0.000  0.041  0.000  0.000  0.000  0.000  0.000  0.060
    5  0.019  0.000  0.000  0.041  0.000  0.000  0.000  0.000  0.000  0.060
    6  0.019  0.000  0.000  0.041  0.000  0.000  0.000  0.000  0.000  0.060
    7  0.019  0.000  0.000  0.041  0.000  0.000  0.000  0.000  0.000  0.060
    8  0.019  0.000  0.000  0.041  0.000  0.000  0.000  0.000  0.000  0.060
tot    0.156  0.000  0.000  0.328  0.000  0.000  0.000  0.000  0.000  0.484
 
band    15 # energy    5.25897103 # occ.  2.00000000
 
ion      s     py     pz     px    dxy    dyz    dz2    dxz  x2-y2    tot
    1  0.000  0.014  0.038  0.000  0.000  0.000  0.000  0.000  0.000  0.052
    2  0.000  0.014  0.038  0.000  0.000  0.000  0.000  0.000  0.000  0.052
    3  0.000  0.014  0.038  0.000  0.000  0.000  0.000  0.000  0.000  0.052