unknown system                          
   1.00000000000000     
     4.913800    0.000000    0.000000
    -2.456900    4.255476    0.000000
     0.000000    0.000000    5.405200
   Si   O 
     3     6
Direct
  0.469800  0.000000  0.666667
  0.530200  0.530200  0.000000
  0.000000  0.469800  0.333333
  0.414500  0.266200  0.785600
  0.585500  0.851700  0.881067
  0.148300  0.733800  0.547733
  0.266200  0.414500  0.214400
  0.851700  0.585500  0.118933
  0.733800  0.148300  0.452267
 
   56   56   64
  1.4696      1.4147      1.4059      1.4305      1.4812      1.5549      1.6503      1.7653      1.8963      2.0385    
  2.1879      2.3413      2.4959      2.6467      2.7874      2.9136      3.0273      3.1382      3.2632      3.4239    
  3.6453      3.9565      4.3950      5.0138      5.8843      7.0936      8.7347      10.893      13.636      17.002    
  20.995      25.558      30.538      35.646      40.447      44.399      46.959      47.724      46.553      43.616    
  39.337      34.270      28.959      23.834      19.181      15.144      11.769      9.0395      6.8997      5.2710    
  4.0622      3.1815      2.5479      2.0988      1.7892      1.5876      1.4145      1.3567      1.3500      1.3828    
  1.4482      1.5430      1.6656      1.8139      1.9843      2.1720      2.3720      2.5793      2.7873      2.9870    
  3.1688      3.3251      3.4536      3.5584      3.6500      3.7448      3.8647      4.0359      4.2893      4.6634    
  5.2081      5.9866      7.0718      8.5362      10.440      12.817      15.667      18.948      22.557      26.314    
  29.952      33.124      35.455      36.625      36.451      34.943      32.301      28.856      24.989      21.048    
  17.301      13.925      11.011      8.5901      6.6478      5.1369      3.9915      3.1392      2.5141      2.0632    
  1.7475      1.5386      1.4056      1.3500      1.3483      1.3903      1.4696      1.5834      1.7305      1.9095    
  2.1174      2.3501      2.6022      2.8669      3.1351      3.3944      3.6318      3.8359      3.9993      4.1189    
  4.1978      4.2466      4.2840      4.3360      4.4322      4.6054      4.8926      5.3386      5.9965      6.9240    
  8.1740      9.7828      11.759      14.074      16.657      19.390      22.098      24.559      26.523      27.754    
  28.085      27.459      25.943      23.716      21.020      18.110      15.211      12.493      10.068      7.9932    
  6.2857      4.9267      3.8744      3.0761      2.4803      2.0441      1.7349      1.5285      1.4308      1.3832    
  1.3904      1.4437      1.5377      1.6700      1.8402      2.0481      2.2923      2.5698      2.8758      3.2025    
  3.5383      3.8689      4.1781      4.4501      4.6707      4.8283      4.9173      4.9414      4.9162      4.8673    
  4.8262      4.8255      4.8980      5.0783      5.4051      5.9212      6.6694      7.6845      8.9832      10.555    
  12.356      14.306      16.286      18.150      19.728      20.853      21.389      21.260      20.471      19.102    
  17.296      15.226      13.063      10.954      9.0062      7.2887      5.8354      4.6494      3.7108      2.9854    
  2.4358      2.0290      1.7386      1.5447      1.4823      1.4490      1.4698      1.5376      1.6481      1.7998    
  1.9933      2.2295      2.5089      2.8309      3.1919      3.5845      3.9966      4.4115      4.8098      5.1705    
  5.4717      5.6924      5.8174      5.8424      5.7781      5.6486      5.4868      5.3286      5.2091      5.1615    
  5.2184      5.4122      5.7751      6.3357      7.1126      8.1079      9.2995      10.637      12.042      13.413    
  14.633      15.581      16.153      16.277      15.927      15.133      13.970      12.549      10.990      9.4071    
  7.8940      6.5189      5.3229      4.3220      3.5112      2.8719      2.3805      2.0138      1.7522      1.5796    
  1.5563      1.5434      1.5832      1.6697      1.7996      1.9727      2.1905      2.4555      2.7699      3.1354    
  3.5512      4.0122      4.5074      5.0194      5.5250      5.9965      6.4030      6.7139      6.9039      6.9601    
  6.8858      6.7006      6.4367      6.1332      5.8317      5.5720      5.3892      5.3130      5.3686      5.5771    
  5.9536      6.5039      7.2197      8.0737      9.0167      9.9791      10.878      11.627      12.145      12.370    
  12.268      11.840      11.123      10.182      9.0934      7.9412      6.8005      5.7326      4.7797      3.9632    
  3.2869      2.7426      2.3178      1.9992      1.7739      1.6300      1.6507      1.6647      1.7294      1.8396    
  1.9931      2.1904      2.4347      2.7295      3.0791      3.4873      3.9569      4.4864      5.0682      5.6861    
  6.3145      6.9187      7.4576      7.8893      8.1778      8.2998      8.2492      8.0383      7.6952      7.2609    
  6.7843      6.3162      5.9019      5.5768      5.3659      5.2856      5.3464      5.5522      5.8993      6.3731    
  6.9443      7.5677      8.1857      8.7347      9.1532      9.3896      9.4091      9.2007      8.7775      8.1735    
  7.4368      6.6227      5.7873      4.9813      4.2432      3.5963      3.0495      2.6020      2.2492      1.9850    
  1.8026      1.6940      1.7640      1.8119      1.9078      2.0477      2.2299      2.4558      2.7294      3.0559    
  3.4411      3.8914      4.4131      5.0097      5.6780      6.4052      7.1658      7.9204      8.6182      9.2044    
  9.6294      9.8570      9.8685      9.6659      9.2713      8.7260      8.0853      7.4115      6.7642      6.1913    
  5.7249      5.3836      5.1759      5.1030      5.1601      5.3357      5.6108      5.9561      6.3326      6.6945    
  6.9949      7.1916      7.2527      7.1616      6.9185      6.5392      6.0512      5.4900      4.8947      4.3028    
  3.7457      3.2452      2.8138      2.4570      2.1761      1.9702      1.8364      1.7699      1.8940      1.9827    
  2.1167      2.2928      2.5102      2.7709      3.0790      3.4407      3.8631      4.3548      4.9260      5.5858    
  6.3371      7.1720      8.0675      8.9828      9.8605      10.633      11.236      11.614      11.731      11.577    
  11.164      10.533      9.7456      8.8746      7.9934      7.1657      6.4378      5.8374      5.3767      5.0567    
  4.8702      4.8042      4.8417      4.9610      5.1347      5.3293      5.5087      5.6391      5.6924      5.6504    
  5.5067      5.2662      4.9435      4.5600      4.1420      3.7158      3.3047      2.9263      2.5939      2.3175    
  2.1040      1.9566      1.8750      1.8560      2.0375      2.1727      2.3516      2.5715      2.8322      3.1363    
  3.4872      3.8907      4.3543      4.8882      5.5059      6.2224      7.0487      7.9841      9.0106      10.089    
  11.160      12.146      12.964      13.539      13.813      13.754      13.364      12.681      11.771      10.716    
  9.6045      8.5158      7.5144      6.6434      5.9247      5.3631      4.9508      4.6727      4.5097      4.4411    
  4.4440      4.4921      4.5563      4.6087      4.6253      4.5882      4.4880      4.3237      4.1016      3.8339    
  3.5371      3.2296      2.9286      2.6475      2.3981      2.1922      2.0406      1.9496      1.9207      1.9515    
  2.1896      2.3748      2.6052      2.8775      3.1918      3.5506      3.9563      4.4124      4.9255      5.5060    
  6.1696      6.9361      7.8254      8.8475      9.9932      11.229      12.496      13.711      14.777      15.593    
  16.077      16.170      15.857      15.165      14.163      12.943      11.608      10.255      8.9678      7.8105    
  6.8195      6.0073      5.3686      4.8867      4.5391      4.3028      4.1550      4.0721      4.0288      3.9998    
  3.9635      3.9032      3.8081      3.6740      3.5035      3.3031      3.0822      2.8526      2.6270      2.4170    
  2.2333      2.0877      1.9919      1.9538      1.9754      2.0550      2.3447      2.5812      2.8685      3.2026    
  3.5824      4.0097      4.4854      5.0096      5.5856      6.2227      6.9371      7.7515      8.6930      9.7840    
  11.029      12.404      13.858      15.305      16.637      17.732      18.477      18.784      18.611      17.968    
  16.918      15.560      14.013      12.394      10.812      9.3525      8.0716      6.9935      6.1176      5.4272    
  4.8965      4.4979      4.2067      3.9997      3.8527      3.7408      3.6423      3.5409      3.4247      3.2876    
  3.1304      2.9581      2.7763      2.5912      2.4111      2.2470      2.1104      2.0123      1.9633      1.9711    
  2.0381      2.1631      2.4977      2.7853      3.1328      3.5366      3.9939      4.5047      5.0678      5.6795    
  6.3379      7.0485      7.8262      8.6946      9.6849      10.830      12.150      13.637      15.250      16.912    
  18.509      19.903      20.951      21.532      21.570      21.048      20.011      18.558      16.823      14.947    
  13.065      11.289      9.6994      8.3357      7.2053      6.2936      5.5727      5.0101      4.5756      4.2440    
  3.9911      3.7920      3.6235      3.4680      3.3127      3.1495      2.9768      2.7994      2.6233      2.4524    
  2.2919      2.1514      2.0427      1.9763      1.9608      2.0030      2.1065      2.2715      2.6444      2.9814    
  3.3896      3.8674      4.4112      5.0189      5.6870      6.4082      7.1740      7.9833      8.8463      9.7849    
  10.831      12.025      13.399      14.964      16.698      18.535      20.369      22.053      23.424      24.325    
  24.641      24.319      23.374      21.894      20.020      17.916      15.743      13.645      11.729      10.056    
  8.6486      7.4968      6.5735      5.8413      5.2617      4.8027      4.4387      4.1448      3.8967      3.6747    
  3.4648      3.2575      3.0482      2.8397      2.6392      2.4528      2.2855      2.1452      2.0432      1.9893    
  1.9905      2.0525      2.1808      2.3779      2.7823      3.1635      3.6287      4.1792      4.8134      5.5274    
  6.3158      7.1680      8.0694      9.0096      9.9903      11.028      12.150      13.399      14.816      16.430    
  18.236      20.191      22.203      24.135      25.812      27.051      27.697      27.649      26.887      25.471    
  23.538      21.264      18.838      16.431      14.183      12.184      10.475      9.0621      7.9202      7.0092    
  6.2816      5.6946      5.2160      4.8195      4.4806      4.1778      3.8961      3.6254      3.3595      3.0984    
  2.8488      2.6196      2.4176      2.2505      2.1288      2.0632      2.0603      2.1254      2.2646      2.4829    
  2.9094      3.3246      3.8379      4.4541      5.1756      5.9996      6.9185      7.9192      8.9824      10.088    
  11.227      12.403      13.637      14.965      16.429      18.070      19.903      21.908      24.019      26.120    
  28.044      29.597      30.588      30.871      30.378      29.130      27.242      24.892      22.287      19.622    
  17.065      14.740      12.720      11.029      9.6532      8.5527      7.6731      6.9592      6.3670      5.8643    
  5.4249      5.0262      4.6519      4.2930      3.9444      3.6055      3.2820      2.9832      2.7181      2.4948    
  2.3242      2.2185      2.1863      2.2334      2.3657      2.5900      3.0266      3.4585      4.0054      4.6746    
  5.4737      6.4032      7.4551      8.6142      9.8579      11.159      12.496      13.858      15.252      16.699    
  18.235      19.901      21.727      23.717      25.837      28.003      30.077      31.870      33.175      33.807    
  33.645      32.661      30.935      28.631      25.956      23.124      20.327      17.719      15.407      13.443    
  11.830      10.535      9.5008      8.6628      7.9626      7.3560      6.8110      6.3030      5.8146      5.3378    
  4.8713      4.4178      3.9841      3.5809      3.2192      2.9084      2.6590      2.4835      2.3931      2.3957    
  2.4980      2.7068      3.1406      3.5651      4.1247      4.8288      5.6888      6.7099      7.8860      9.2013    
  10.632      12.146      13.713      15.306      16.914      18.537      20.191      21.906      23.715      25.642    
  27.687      29.806      31.903      33.822      35.360      36.307      36.496      35.847      34.389      32.253    
  29.640      26.771      23.852      21.060      18.529      16.338      14.513      13.036      11.854      10.899    
  10.101      9.3997      8.7521      8.1270      7.5049      6.8788      6.2520      5.6340      5.0374      4.4778    
  3.9715      3.5310      3.1665      2.8884      2.7085      2.6367      2.6805      2.8468      3.2666      3.6542    
  4.1995      4.9136      5.8104      6.8988      8.1768      9.6307      11.238      12.966      14.779      16.638    
  18.509      20.368      22.204      24.019      25.836      27.686      29.595      31.565      33.546      35.421    
  37.025      38.168      38.667      38.395      37.316      35.497      33.100      30.342      27.455      24.630    
  22.013      19.701      17.742      16.132      14.832      13.781      12.903      12.125      11.387      10.647    
  9.8790      9.0743      8.2417      7.4000      6.5729      5.7865      5.0658      4.4314      3.8965      3.4706    
  3.1629      2.9825      2.9361      3.0291      3.4265      3.7451      4.2438      4.9360      5.8369      6.9583    
  8.3029      9.8622      11.618      13.541      15.595      17.732      19.901      22.050      24.134      26.121    
  28.004      29.806      31.565      33.304      34.992      36.579      37.988      39.096      39.749      39.802    
  39.168      37.843      35.913      33.534      30.901      28.231      25.713      23.451      21.497      19.860    
  18.517      17.420      16.498      15.675      14.874      14.036      13.121      12.116      11.034      9.9050    
  8.7688      7.6675      6.6408      5.7218      4.9341      4.2911      3.8002      3.4661      3.2915      3.2774    
  3.6463      3.8626      4.2795      4.9123      5.7775      6.8892      8.2551      9.8738      11.733      13.811    
  16.075      18.475      20.949      23.421      25.810      28.045      30.078      31.904      33.547      34.992    
  36.226      37.275      38.172      38.913      39.432      39.620      39.369      38.617      37.371      35.703    
  33.726      31.580      29.424      27.427      25.679      24.188      22.939      21.897      21.008      20.197    
  19.380      18.479      17.437      16.227      14.860      13.379      11.844      10.323      8.8773      7.5590    
  6.4081      5.4490      4.6918      4.1377      3.7826      3.6204      3.9561      4.0338      4.3328      4.8663    
  5.6521      6.7068      8.0432      9.6670      11.574      13.749      16.165      18.782      21.533      24.326    
  27.053      29.598      31.871      33.822      35.421      36.579      37.275      37.586      37.656      37.634    
  37.611      37.586      37.495      37.251      36.794      36.101      35.180      34.055      32.770      31.412    
  30.119      28.999      28.045      27.229      26.508      25.818      25.075      24.183      23.061      21.664    
  19.992      18.096      16.064      13.999      11.997      10.139      8.4874      7.0827      5.9444      5.0747    
  4.4640      4.0965      4.3941      4.2884      4.4316      4.8274      5.4911      6.4415      7.6961      9.2672    
  11.158      13.359      15.855      18.611      21.572      24.645      27.701      30.590      33.176      35.359    
  37.024      37.987      38.172      37.657      36.663      35.497      34.456      33.736      33.402      33.414    
  33.681      34.097      34.546      34.905      35.058      34.938      34.577      34.111      33.695      33.334    
  32.993      32.612      32.105      31.361      30.267      28.742      26.768      24.401      21.761      19.000    
  16.270      13.698      11.375      9.3642      7.6979      6.3853      5.4146      4.7609      5.0130      4.6635    
  4.6066      4.8274      5.3309      6.1343      7.2582      8.7196      10.527      12.680      15.169      17.972    
  21.050      24.320      27.651      30.871      33.806      36.306      38.167      39.095      38.912      37.635    
  35.499      32.927      30.433      28.475      27.350      27.164      27.872      29.326      31.297      33.495    
  35.597      37.327      38.534      39.252      39.675      40.030      40.339      40.543      40.543      40.195    
  39.335      37.828      35.614      32.744      29.373      25.728      22.046      18.526      15.313      12.495    
  10.120      8.2060      6.7398      5.6900      5.8838      5.2082      4.8941      4.8995      5.2090      5.8299    
  6.7807      8.0809      9.7439      11.774      14.170      16.924      20.012      23.372      26.884      30.374    
  33.641      36.495      38.668      39.750      39.432      37.611      34.457      30.433      26.223      22.563    
  20.059      19.073      19.712      21.869      25.261      29.442      33.859      37.962      41.350      43.876    
  45.668      47.039      48.286      49.412      50.293      50.726      50.461      49.265      46.995      43.666    
  39.467      34.718      29.788      25.002      20.597      16.709      13.402      10.693      8.5659      6.9815    
  7.0933      5.9861      5.3393      5.0792      5.1604      5.5691      6.3139      7.4114      8.8771      10.721    
  12.949      15.563      18.556      21.890      25.468      29.127      32.659      35.846      38.397      39.805    
  39.621      37.586      33.736      28.475      22.563      16.965      12.617      10.213      10.120      12.390    
  16.784      22.776      29.605      36.412      42.470      47.367      51.093      53.963      56.436      58.816    
  61.002      62.714      63.571      63.179      61.242      57.675      52.659      46.616      40.095      33.628    
  27.616      22.294      17.757      14.014      11.030      8.7468      8.7347      7.0708      5.9962      5.4058    
  5.2177      5.3869      5.9011      6.7671      7.9981      9.6078      11.608      14.009      16.817      20.015    
  23.537      27.245      30.938      34.390      37.317      39.170      39.370      37.494      33.401      27.350    
  20.059      12.616      6.2332      1.9544     0.47777      2.1154      6.7988      14.056      23.013      32.537    
  41.519      49.193      55.321      60.158      64.247      68.140      72.007      75.515      78.126      79.219    
  78.258      74.951      69.380      62.019      53.622      45.010      36.866      29.617      23.441      18.348    
  14.268      11.098      10.894      8.5354      6.9230      5.9217      5.4127      5.3120      5.5766      6.1941    
  7.1696      8.5163      10.251      12.388      14.942      17.913      21.266      24.899      28.637      32.255    
  35.497      37.842      38.616      37.248      33.412      27.165      19.074      10.212      1.9528     -4.3596    
 -7.6853     -7.3959     -3.2886      4.3651      14.750      26.575      38.380      48.977      57.790      64.922    
  70.956      76.608      82.364      88.060      93.015      96.353      97.213      94.978      89.484      81.131    
  70.820      59.708      48.880      39.106      30.758      23.899      18.416      14.137      13.637      10.440    
  8.1728      6.6694      5.7765      5.3690      5.3654      5.7260      6.4395      7.5128      8.9628      10.808    
  13.065      15.746      18.841      22.291      25.958      29.640      33.097      35.910      37.370      36.792    
  33.679      27.874      19.715      10.121     0.47651     -7.6864     -13.030     -14.606     -11.893     -4.8593    
  5.9153      19.184      33.269      46.571      58.084      67.638      75.764      83.309      90.991      98.993    
  106.65      112.86      116.41      116.27      111.86      103.31      91.516      77.897      64.016      51.145    
  40.026      30.885      23.611      17.951      17.003      12.818      9.7819      7.6836      6.3368      5.5784    
  5.2851      5.3829      5.8375      6.6418      7.8066      9.3511      11.294      13.653      16.436      19.621    
  23.121      26.767      30.337      33.531      35.704      36.103      34.097      29.326      21.872      12.392    
  2.1151     -7.3967     -14.605     -18.273     -17.568     -12.109     -2.1244      11.395      26.776      42.134    
  56.021      67.870      78.024      87.377      96.856      106.95      117.28      126.64      133.52      136.43    
  134.30      126.78      114.50      98.951      82.106      65.833      51.431      39.475      29.968      22.605    
  20.995      15.669      11.759      8.9816      7.1126      5.9550      5.3464      5.1742      5.3761      5.9249    
  6.8183      8.0711      9.7036      11.735      14.185      17.060      20.320      23.848      27.453      30.900    
  33.729      35.185      34.549      31.297      25.261      16.784      6.7979     -3.2900     -11.892     -17.565    
 -19.189     -16.045     -7.9568      4.4879      19.860      36.216      51.759      65.475      77.371      88.246    
  99.162      110.88      123.42      135.71      146.07      152.75      154.07      148.93      137.47      121.16    
  102.11      82.670      64.811      49.662      37.515      28.118      25.557      18.949      14.075      10.554    
  8.1066      6.5049      5.5531      5.1015      5.0554      5.3644      6.0093      6.9941      8.3364      10.057    
  12.181      14.733      17.714      21.061      24.634      28.234      31.583      34.058      34.908      33.494    
  29.440      22.775      14.054      4.3628     -4.8601     -12.107     -16.042     -15.638     -10.313     -.18126    
  13.759      29.760      45.881      60.714      73.835      85.778      97.605      110.30      124.24      138.73    
  152.14      162.63      168.11      166.69      157.65      141.97      122.00      100.34      79.423      61.079    
  46.088      34.407      30.536      22.557      16.659      12.356      9.2978      7.2198      5.9011      5.1599    
  4.8683      4.9512      5.3717      6.1195      7.2043      8.6462      10.472      12.714      15.404      18.533    
  22.022      25.718      29.424      32.768      35.057      35.595      33.855      29.603      23.014      14.750    
  5.9134     -2.1245     -7.9549     -10.312     -8.2497     -1.3908      9.8048      24.005      39.383      54.299    
  67.898      80.322      92.451      105.36      119.74      135.35      150.82      164.36      173.83      176.81    
  171.66      158.45      139.16      116.73      93.854      72.875      55.211      41.213      35.644      26.313    
  19.391      14.307      10.636      8.0726      6.3746      5.3371      4.8028      4.6713      4.8881      5.4291    
  6.2925      7.4943      9.0607      11.029      13.444      16.342      19.708      23.454      27.424      31.406    
  34.935      37.325      37.960      36.412      32.541      26.579      19.184      11.393      4.4873     -.18171    
 -1.3923      1.6796      9.1500      20.254      33.521      47.312      60.461      72.668      84.479      96.884    
  110.75      126.28      142.54      157.83      170.24      177.28      176.69      167.53      150.87      129.42    
  106.18      83.725      64.054      48.044      40.446      29.950      22.098      16.288      12.042      9.0149    
  6.9443      5.6126      4.8418      4.5078      4.5386      4.8972      5.5717      6.5713      7.9209      9.6576    
  11.835      14.515      17.742      21.495      25.673      30.113      34.575      38.536      41.351      42.470    
  41.521      38.384      33.270      26.774      19.859      13.759      9.8028      9.1472      12.440      19.545    
  29.527      40.998      52.680      63.906      74.802      86.099      98.678      113.04      128.77      144.45    
  158.30      168.21      171.76      167.29      154.82      136.24      114.42      92.059      71.514      54.191    
  44.399      33.122      24.558      18.151      13.414      9.9778      7.5665      5.9570      4.9621      4.4403    
  4.3018      4.4984      5.0098      5.8391      7.0088      8.5568      10.540      13.037      16.128      19.854    
  24.183      28.997      34.113      39.258      43.881      47.367      49.192      48.977      46.570      42.132    
  36.215      29.761      24.006      20.252      19.542      22.322      28.275      36.460      45.726      55.204    
  64.634      74.379      85.155      97.589      111.66      126.46      140.41      151.66      158.13      157.91    
  150.19      135.85      117.10      96.468      76.451      58.834      46.959      35.456      26.522      19.728    
  14.634      10.878      8.1845      6.3325      5.1357      4.4441      4.1543      4.2074      4.5770      5.2612    
  6.2800      7.6734      9.5025      11.853      14.828      18.513      22.938      28.048      33.700      39.681    
  45.671      51.093      55.317      57.786      58.081      56.018      51.757      45.883      39.387      33.523    
  29.526      28.274      30.025      34.380      40.517      47.583      55.060      62.946      71.670      81.794    
  93.530      106.40      119.30      130.64      138.61      141.48      138.06      128.37      113.71      96.140    
  78.010      61.247      47.726      36.628      27.755      20.852      15.581      11.627      8.7343      6.6941    
  5.3298      4.4924      4.0714      3.9997      4.2457      4.8045      5.6945      6.9581      8.6616      10.897    
  13.778      17.419      21.901      27.235      33.338      40.030      47.037      53.960      60.154      64.919    
  67.638      67.870      65.474      60.714      54.301      47.315      40.999      36.460      34.380      34.873    
  37.543      41.741      46.884      52.705      59.321      67.096      76.276      86.666      97.614      107.99    
  116.30      120.98      120.79      115.25      104.88      91.126      75.896      61.008      46.557      36.455    
  28.086      21.387      16.152      12.145      9.1533      6.9946      5.5089      4.5568      4.0282      3.8515    
  3.9909      4.4400      5.2171      6.3671      7.9619      10.100      12.901      16.499      21.012      26.513    
  32.994      40.334      48.279      56.431      64.245      70.957      75.768      78.028      77.374      73.835    
  67.897      60.459      52.679      45.725      40.518      37.545      36.814      37.981      40.567      44.197    
  48.747      54.339      61.101      68.960      77.570      86.218      93.838      99.165      101.02      98.688    
  92.182      82.317      70.467      58.139      43.620      34.944      27.457      21.258      16.275      12.370    
  9.3900      7.1913      5.6388      4.6093      4.0003      3.7400      3.7906      4.1441      4.8196      5.8646    
  7.3565      9.4006      12.126      15.676      20.199      25.820      32.610      40.537      49.407      58.814    
  68.142      76.612      83.313      87.381      88.249      85.779      80.320      72.665      63.903      55.202    
  47.583      41.743      37.982      36.246      36.250      37.654      40.215      43.848      48.502      54.097    
  60.442      67.119      73.435      78.474      81.268      81.065      77.586      71.155      62.623      53.096    
  39.338      32.298      25.940      20.468      15.926      12.268      9.4105      7.2529      5.6916      4.6253    
  3.9646      3.6430      3.6232      3.8960      4.4799      5.4240      6.8105      8.7530      11.390      14.876    
  19.380      25.072      32.102      40.539      50.292      61.007      72.013      82.368      90.991      96.854    
  99.160      97.603      92.450      84.479      74.802      64.634      55.060      46.884      40.568      36.250    
  33.832      33.083      33.752      35.618      38.481      42.194      46.601      51.442      56.287      60.525    
  63.441      64.385      62.966      59.198      53.513      46.630      34.266      28.849      23.713      19.101    
  15.134      11.842      9.2027      7.1623      5.6495      4.5873      3.9037      3.5419      3.4685      3.6751    
  4.1786      5.0260      6.3014      8.1259      10.648      14.037      18.478      24.180      31.358      40.194    
  50.728      62.720      75.522      88.062      98.989      106.94      110.88      110.30      105.36      96.885    
  86.103      74.382      62.947      52.704      44.197      37.654      33.082      30.350      29.242      29.482    
  30.801      32.979      35.828      39.142      42.639      45.924      48.504      49.878      49.668      47.734    
  44.232      39.566      28.952      24.983      21.019      17.300      13.975      11.125      8.7782      6.9189    
  5.5060      4.4866      3.8077      3.4252      3.3124      3.4644      3.8974      4.6540      5.8146      7.5031    
  9.8783      13.121      17.436      23.059      30.266      39.337      50.465      63.574      78.127      93.013    
  106.65      117.28      123.42      124.24      119.74      110.75      98.680      85.159      71.672      59.320    
  48.746      40.215      33.751      29.241      26.481      25.213      25.159      26.052      27.658      29.765    
  32.150      34.542      36.611      37.995      38.377      37.574      35.587      32.607      23.830      21.046    
  18.113      15.233      12.554      10.181      8.1707      6.5380      5.2660      4.3227      3.6735      3.2885    
  3.1493      3.2553      3.6242      4.2949      5.3398      6.8783      9.0732      12.117      16.227      21.663    