unknown system                          
   1.00000000000000     
     4.913800    0.000000    0.000000
    -2.456900    4.255476    0.000000
     0.000000    0.000000    5.405200
   Si   O 
     3     6
Direct
  0.469800  0.000000  0.666667
  0.530200  0.530200  0.000000
  0.000000  0.469800  0.333333
  0.414500  0.266200  0.785600
  0.585500  0.851700  0.881067
  0.148300  0.733800  0.547733
  0.266200  0.414500  0.214400
  0.851700  0.585500  0.118933
  0.733800  0.148300  0.452267
 
   56   56   64
 0.14695747582E+01 0.14147287796E+01 0.14059018582E+01 0.14304799518E+01 0.14811729144E+01
 0.15548925334E+01 0.16502604737E+01 0.17652725210E+01 0.18962650868E+01 0.20385277860E+01
 0.21878611203E+01 0.23413139032E+01 0.24959017167E+01 0.26467180133E+01 0.27873809462E+01
 0.29135958225E+01 0.30272534112E+01 0.31381811959E+01 0.32631865226E+01 0.34239147981E+01
 0.36453045842E+01 0.39564511567E+01 0.43950472032E+01 0.50138117326E+01 0.58842636518E+01
 0.70936148873E+01 0.87347097084E+01 0.10893037507E+02 0.13635502881E+02 0.17002070511E+02
 0.20995185438E+02 0.25557961952E+02 0.30537541806E+02 0.35645990460E+02 0.40447211038E+02
 0.44399098708E+02 0.46958729300E+02 0.47723544772E+02 0.46553304697E+02 0.43616477782E+02
 0.39337469457E+02 0.34270442329E+02 0.28958720162E+02 0.23834487019E+02 0.19180694270E+02
 0.15143555908E+02 0.11768986425E+02 0.90394817770E+01 0.68996840166E+01 0.52709963768E+01
 0.40622311680E+01 0.31814821656E+01 0.25479241969E+01 0.20987770527E+01 0.17892352055E+01
 0.15875966164E+01 0.14145056002E+01 0.13567204056E+01 0.13499873681E+01 0.13828335924E+01
 0.14482252419E+01 0.15429541118E+01 0.16655549403E+01 0.18139398215E+01 0.19843461734E+01
 0.21719664150E+01 0.23719564141E+01 0.25792585204E+01 0.27872559198E+01 0.29870267838E+01
 0.31687928042E+01 0.33250867097E+01 0.34536026411E+01 0.35584164995E+01 0.36499984827E+01
 0.37448398160E+01 0.38647366939E+01 0.40359052133E+01 0.42892955532E+01 0.46633558565E+01
 0.52080609568E+01 0.59866452268E+01 0.70718373715E+01 0.85362472989E+01 0.10439598633E+02
 0.12816623401E+02 0.15667472012E+02 0.18948236054E+02 0.22556850158E+02 0.26314316315E+02
 0.29952036936E+02 0.33123774930E+02 0.35455257912E+02 0.36625349787E+02 0.36451463046E+02
 0.34943313230E+02 0.32300568108E+02 0.28855795637E+02 0.24988896846E+02 0.21048030497E+02
 0.17301450566E+02 0.13924539365E+02 0.11010614018E+02 0.85900626648E+01 0.66477920348E+01
 0.51369460947E+01 0.39914550066E+01 0.31392150032E+01 0.25140990865E+01 0.20631614996E+01
 0.17474705034E+01 0.15386202785E+01 0.14056171259E+01 0.13500294188E+01 0.13482905136E+01
 0.13902502513E+01 0.14695932420E+01 0.15833951408E+01 0.17304965671E+01 0.19094676597E+01
 0.21174153770E+01 0.23500678323E+01 0.26021632937E+01 0.28669488600E+01 0.31350563455E+01
 0.33943625315E+01 0.36317741375E+01 0.38359452131E+01 0.39992663793E+01 0.41188738018E+01
 0.41977875546E+01 0.42465579913E+01 0.42840464271E+01 0.43359817334E+01 0.44322141605E+01
 0.46053888350E+01 0.48926155112E+01 0.53385743154E+01 0.59964639372E+01 0.69239600149E+01
 0.81740002880E+01 0.97828290893E+01 0.11758767605E+02 0.14073818018E+02 0.16657328769E+02
 0.19389745724E+02 0.22097844405E+02 0.24558831626E+02 0.26522547625E+02 0.27753910760E+02
 0.28085172420E+02 0.27458786816E+02 0.25943381317E+02 0.23716327657E+02 0.21020239881E+02
 0.18110410949E+02 0.15211382292E+02 0.12493332760E+02 0.10067628238E+02 0.79932022455E+01
 0.62856975700E+01 0.49267013382E+01 0.38743942466E+01 0.30761314720E+01 0.24803480238E+01
 0.20441163724E+01 0.17349388488E+01 0.15285236749E+01 0.14307732592E+01 0.13832111340E+01
 0.13904297287E+01 0.14437046383E+01 0.15376639802E+01 0.16700043048E+01 0.18402430990E+01
 0.20480960086E+01 0.22922616133E+01 0.25698340939E+01 0.28758412515E+01 0.32024535148E+01
 0.35383000025E+01 0.38688549010E+01 0.41780519952E+01 0.44500940589E+01 0.46706677263E+01
 0.48283262730E+01 0.49173276260E+01 0.49414484070E+01 0.49162034869E+01 0.48673153530E+01
 0.48261760344E+01 0.48255082845E+01 0.48980472578E+01 0.50783324838E+01 0.54051015908E+01
 0.59212141534E+01 0.66694430594E+01 0.76844997388E+01 0.89831710334E+01 0.10555069337E+02
 0.12356106893E+02 0.14305525318E+02 0.16286331526E+02 0.18149899826E+02 0.19727644242E+02
 0.20852548798E+02 0.21388680917E+02 0.21260448472E+02 0.20470873900E+02 0.19101772014E+02
 0.17295655077E+02 0.15225611021E+02 0.13063185587E+02 0.10954038116E+02 0.90061862056E+01
 0.72887198570E+01 0.58353605316E+01 0.46494406681E+01 0.37107823422E+01 0.29853690599E+01
 0.24358221125E+01 0.20289788512E+01 0.17386451438E+01 0.15446585363E+01 0.14823455939E+01
 0.14489589466E+01 0.14698022945E+01 0.15376122558E+01 0.16480915023E+01 0.17998273292E+01
 0.19932783132E+01 0.22294593250E+01 0.25089202188E+01 0.28308529581E+01 0.31918593238E+01
 0.35845129486E+01 0.39965663916E+01 0.44114751794E+01 0.48098237837E+01 0.51705387199E+01
 0.54716993128E+01 0.56924468322E+01 0.58174054508E+01 0.58424170625E+01 0.57780825711E+01
 0.56486055680E+01 0.54868313674E+01 0.53286074438E+01 0.52090576555E+01 0.51615197100E+01
 0.52183884092E+01 0.54122104115E+01 0.57751484772E+01 0.63356707184E+01 0.71126250315E+01
 0.81078966522E+01 0.92994816040E+01 0.10637158160E+02 0.12042462873E+02 0.13413292619E+02
 0.14632570011E+02 0.15580882561E+02 0.16153099851E+02 0.16276769112E+02 0.15927075364E+02
 0.15132758527E+02 0.13970461034E+02 0.12549230772E+02 0.10990116422E+02 0.94070716574E+01
 0.78939889664E+01 0.65188779516E+01 0.53228860495E+01 0.43219617278E+01 0.35111647770E+01
 0.28719466319E+01 0.23804717300E+01 0.20137592506E+01 0.17522019416E+01 0.15795852902E+01
 0.15562979597E+01 0.15433723176E+01 0.15831721879E+01 0.16696677132E+01 0.17996115254E+01
 0.19726924482E+01 0.21905498441E+01 0.24555242448E+01 0.27699370527E+01 0.31353798189E+01
 0.35511649760E+01 0.40122032599E+01 0.45074193654E+01 0.50193933116E+01 0.55249955815E+01
 0.59964646415E+01 0.64029985101E+01 0.67138772075E+01 0.69039296192E+01 0.69600854701E+01
 0.68857504064E+01 0.67006179685E+01 0.64367099045E+01 0.61332257074E+01 0.58317389450E+01
 0.55720225336E+01 0.53891784186E+01 0.53129562076E+01 0.53685931479E+01 0.55770985433E+01
 0.59536090898E+01 0.65039146803E+01 0.72197302436E+01 0.80737271696E+01 0.90166519116E+01
 0.99790894614E+01 0.10878128097E+02 0.11626840812E+02 0.12144862818E+02 0.12369702393E+02
 0.12267525916E+02 0.11839928940E+02 0.11123410366E+02 0.10181593464E+02 0.90934414364E+01
 0.79412348634E+01 0.68005246671E+01 0.57326193515E+01 0.47796933700E+01 0.39632473375E+01
 0.32868777583E+01 0.27426332652E+01 0.23178293401E+01 0.19991753704E+01 0.17739152109E+01
 0.16299591667E+01 0.16506807468E+01 0.16647026015E+01 0.17293798037E+01 0.18396467546E+01
 0.19930890244E+01 0.21904375555E+01 0.24346510569E+01 0.27295127338E+01 0.30790527362E+01
 0.34872890641E+01 0.39568500214E+01 0.44864214931E+01 0.50682095884E+01 0.56860877332E+01
 0.63144872248E+01 0.69186931463E+01 0.74576315628E+01 0.78893090974E+01 0.81777698132E+01
 0.82997686849E+01 0.82492350903E+01 0.80382822622E+01 0.76951987589E+01 0.72609025808E+01
 0.67843339088E+01 0.63161917836E+01 0.59018955065E+01 0.55768300877E+01 0.53658748075E+01
 0.52856488443E+01 0.53464125172E+01 0.55522115256E+01 0.58993167160E+01 0.63730766172E+01
 0.69442505247E+01 0.75676989160E+01 0.81856735511E+01 0.87346789664E+01 0.91532426608E+01
 0.93895646613E+01 0.94091348845E+01 0.92006736976E+01 0.87774802445E+01 0.81735252341E+01
 0.74368123107E+01 0.66226593688E+01 0.57873099327E+01 0.49812849505E+01 0.42432054379E+01
 0.35963152154E+01 0.30494875033E+01 0.26020411227E+01 0.22491917454E+01 0.19850108124E+01
 0.18026443122E+01 0.16940364805E+01 0.17639916414E+01 0.18118684909E+01 0.19078133585E+01
 0.20477173422E+01 0.22298971245E+01 0.24557803471E+01 0.27293860044E+01 0.30559207999E+01
 0.34411153919E+01 0.38914152186E+01 0.44131498951E+01 0.50097254302E+01 0.56780342163E+01
 0.64052134609E+01 0.71658108978E+01 0.79204053082E+01 0.86181961458E+01 0.92043625151E+01
 0.96294232762E+01 0.98569808410E+01 0.98685324387E+01 0.96658508383E+01 0.92713021169E+01
 0.87259705727E+01 0.80852624679E+01 0.74115140785E+01 0.67642395698E+01 0.61912835198E+01
 0.57249341117E+01 0.53836361099E+01 0.51758934332E+01 0.51030027930E+01 0.51600541138E+01
 0.53357168567E+01 0.56107562158E+01 0.59560653839E+01 0.63325762827E+01 0.66945230287E+01
 0.69949445203E+01 0.71916160919E+01 0.72527268336E+01 0.71615634017E+01 0.69184563407E+01
 0.65391683887E+01 0.60512327038E+01 0.54900478657E+01 0.48946916580E+01 0.43028326279E+01
 0.37457140588E+01 0.32452009608E+01 0.28138115203E+01 0.24569991345E+01 0.21760788980E+01
 0.19701605000E+01 0.18364460554E+01 0.17699293844E+01 0.18940415672E+01 0.19827228504E+01
 0.21167136465E+01 0.22928083005E+01 0.25102427598E+01 0.27708657013E+01 0.30790164837E+01
 0.34407168560E+01 0.38630832171E+01 0.43547775929E+01 0.49259905899E+01 0.55857717227E+01
 0.63371156769E+01 0.71720167803E+01 0.80674644111E+01 0.89827572148E+01 0.98604655407E+01
 0.10633416747E+02 0.11235831095E+02 0.11613614095E+02 0.11731260274E+02 0.11576549875E+02
 0.11163685565E+02 0.10532984279E+02 0.97456480765E+01 0.88746002804E+01 0.79934356873E+01
 0.71657372482E+01 0.64378437367E+01 0.58374342510E+01 0.53767396185E+01 0.50567178268E+01
 0.48701737148E+01 0.48041852392E+01 0.48416733789E+01 0.49610393608E+01 0.51346905680E+01
 0.53292554681E+01 0.55087371914E+01 0.56390704435E+01 0.56923745239E+01 0.56504240956E+01
 0.55067149618E+01 0.52662357087E+01 0.49434659255E+01 0.45600221627E+01 0.41419551334E+01
 0.37158378311E+01 0.33047016236E+01 0.29262802849E+01 0.25938717860E+01 0.23175197550E+01
 0.21040291812E+01 0.19566083201E+01 0.18750203269E+01 0.18560159705E+01 0.20374622688E+01
 0.21726781745E+01 0.23516444155E+01 0.25714514335E+01 0.28322455841E+01 0.31362534262E+01
 0.34872406265E+01 0.38907446647E+01 0.43543466692E+01 0.48882443786E+01 0.55059085131E+01
 0.62223950995E+01 0.70486618859E+01 0.79840899121E+01 0.90105853447E+01 0.10089225703E+02
 0.11159826682E+02 0.12145621427E+02 0.12963879575E+02 0.13538824567E+02 0.13812572523E+02
 0.13753716112E+02 0.13364126384E+02 0.12680971192E+02 0.11770566202E+02 0.10716066740E+02
 0.96044814612E+01 0.85158245802E+01 0.75143950844E+01 0.66433856065E+01 0.59247188843E+01
 0.53630528978E+01 0.49508019681E+01 0.46726833660E+01 0.45096693987E+01 0.44411004674E+01
 0.44440482800E+01 0.44920686765E+01 0.45562996801E+01 0.46087114870E+01 0.46252682097E+01
 0.45882491725E+01 0.44880478385E+01 0.43237030113E+01 0.41016378559E+01 0.38339482603E+01
 0.35370998433E+01 0.32296393866E+01 0.29285886461E+01 0.26475092656E+01 0.23981053663E+01
 0.21922276236E+01 0.20405785897E+01 0.19496271307E+01 0.19206982942E+01 0.19514923119E+01
 0.21895669400E+01 0.23747540726E+01 0.26052157197E+01 0.28774823770E+01 0.31918078279E+01
 0.35505738336E+01 0.39563004706E+01 0.44124442220E+01 0.49254793936E+01 0.55060372449E+01
 0.61695889087E+01 0.69361078788E+01 0.78253771127E+01 0.88474552979E+01 0.99932036475E+01
 0.11229084629E+02 0.12495894414E+02 0.13711036855E+02 0.14776597595E+02 0.15593379429E+02
 0.16076668273E+02 0.16170116369E+02 0.15856859510E+02 0.15165029285E+02 0.14162723401E+02
 0.12943119622E+02 0.11607816094E+02 0.10254526575E+02 0.89677812482E+01 0.78105191303E+01
 0.68194781518E+01 0.60072580815E+01 0.53685637325E+01 0.48866551028E+01 0.45391475646E+01
 0.43027789282E+01 0.41549614152E+01 0.40721178794E+01 0.40287665387E+01 0.39997837879E+01
 0.39635000831E+01 0.39032123771E+01 0.38080591560E+01 0.36740265792E+01 0.35034990960E+01
 0.33031130617E+01 0.30822433525E+01 0.28526244420E+01 0.26269835063E+01 0.24169644255E+01
 0.22333013084E+01 0.20876763932E+01 0.19918727341E+01 0.19537826187E+01 0.19753916183E+01
 0.20549883144E+01 0.23447476209E+01 0.25812002629E+01 0.28685220094E+01 0.32025614421E+01
 0.35823947049E+01 0.40097252836E+01 0.44854428411E+01 0.50096319703E+01 0.55855744777E+01
 0.62226999577E+01 0.69370723342E+01 0.77514799248E+01 0.86930174008E+01 0.97839765359E+01
 0.11028758820E+02 0.12404464697E+02 0.13857665095E+02 0.15304751673E+02 0.16636685851E+02
 0.17731987744E+02 0.18476581636E+02 0.18783951726E+02 0.18611151002E+02 0.17968418660E+02
 0.16918032212E+02 0.15560181371E+02 0.14012633464E+02 0.12393964167E+02 0.10811887719E+02
 0.93525081684E+01 0.80715928586E+01 0.69934737610E+01 0.61176305410E+01 0.54271989463E+01
 0.48964681200E+01 0.44979181431E+01 0.42066988215E+01 0.39997359473E+01 0.38527168907E+01
 0.37407891625E+01 0.36423412918E+01 0.35408699496E+01 0.34246602978E+01 0.32876349273E+01
 0.31304129652E+01 0.29580566307E+01 0.27763145567E+01 0.25911970576E+01 0.24111276071E+01
 0.22470416488E+01 0.21103762426E+01 0.20122700484E+01 0.19633031650E+01 0.19711003398E+01
 0.20380651656E+01 0.21630855658E+01 0.24976769364E+01 0.27852688340E+01 0.31328464308E+01
 0.35366298846E+01 0.39939423808E+01 0.45046773518E+01 0.50678129054E+01 0.56795477264E+01
 0.63378878653E+01 0.70484920200E+01 0.78262131204E+01 0.86945675439E+01 0.96848631565E+01
 0.10829842801E+02 0.12149538076E+02 0.13636896012E+02 0.15250431840E+02 0.16912261511E+02
 0.18509382970E+02 0.19903238345E+02 0.20951014299E+02 0.21532069747E+02 0.21570143757E+02
 0.21047732481E+02 0.20010561311E+02 0.18558249658E+02 0.16823066619E+02 0.14947070192E+02
 0.13064796954E+02 0.11289231028E+02 0.96994484109E+01 0.83356932670E+01 0.72053187462E+01
 0.62935666491E+01 0.55727094156E+01 0.50101021747E+01 0.45756146077E+01 0.42439583887E+01
 0.39911170061E+01 0.37920072313E+01 0.36235424552E+01 0.34680149278E+01 0.33126989311E+01
 0.31494583298E+01 0.29767875293E+01 0.27994121478E+01 0.26232641742E+01 0.24523754373E+01
 0.22918965781E+01 0.21513726726E+01 0.20426822016E+01 0.19763246005E+01 0.19608365798E+01
 0.20030419248E+01 0.21065324433E+01 0.22715248139E+01 0.26444146635E+01 0.29813610242E+01
 0.33896155140E+01 0.38673707525E+01 0.44112493579E+01 0.50188687403E+01 0.56869863355E+01
 0.64081885706E+01 0.71740467825E+01 0.79832717870E+01 0.88463133438E+01 0.97849489585E+01
 0.10831362888E+02 0.12024636787E+02 0.13398598903E+02 0.14964416499E+02 0.16698066069E+02
 0.18535080561E+02 0.20368521029E+02 0.22053148061E+02 0.23423682592E+02 0.24324932916E+02
 0.24641449500E+02 0.24318579728E+02 0.23373703332E+02 0.21894408729E+02 0.20020356471E+02
 0.17915509271E+02 0.15742772257E+02 0.13644841399E+02 0.11728643128E+02 0.10056336321E+02
 0.86486398343E+01 0.74967893796E+01 0.65735273373E+01 0.58413212704E+01 0.52616863631E+01
 0.48027419262E+01 0.44387110443E+01 0.41447999910E+01 0.38966974381E+01 0.36746605929E+01
 0.34648336231E+01 0.32575409075E+01 0.30482382202E+01 0.28396969629E+01 0.26391537903E+01
 0.24527667693E+01 0.22854741426E+01 0.21452355946E+01 0.20432177187E+01 0.19893335736E+01
 0.19904578397E+01 0.20525266627E+01 0.21808114708E+01 0.23779172520E+01 0.27822749218E+01
 0.31635230063E+01 0.36287325494E+01 0.41792450782E+01 0.48133757465E+01 0.55274330494E+01
 0.63157889511E+01 0.71679640816E+01 0.80694089198E+01 0.90096138357E+01 0.99903361845E+01
 0.11027583349E+02 0.12150472532E+02 0.13399199765E+02 0.14816419393E+02 0.16430049390E+02
 0.18236421222E+02 0.20190914547E+02 0.22203042243E+02 0.24134926626E+02 0.25812058549E+02
 0.27051373822E+02 0.27696842771E+02 0.27649434095E+02 0.26886975286E+02 0.25471455549E+02
 0.23537609724E+02 0.21263636039E+02 0.18837593096E+02 0.16431492831E+02 0.14183100936E+02
 0.12183566275E+02 0.10475419350E+02 0.90620508542E+01 0.79201656150E+01 0.70092341356E+01
 0.62816394850E+01 0.56946359634E+01 0.52159509165E+01 0.48195217492E+01 0.44806420372E+01
 0.41778478480E+01 0.38960966568E+01 0.36254198866E+01 0.33595415463E+01 0.30983958914E+01
 0.28488221137E+01 0.26195900625E+01 0.24176092798E+01 0.22504524651E+01 0.21288107391E+01
 0.20631736011E+01 0.20603321631E+01 0.21254149624E+01 0.22645596606E+01 0.24828938325E+01
 0.29094306379E+01 0.33245999242E+01 0.38379219288E+01 0.44541158117E+01 0.51755783431E+01
 0.59995518467E+01 0.69184986754E+01 0.79192463334E+01 0.89824471961E+01 0.10088348591E+02
 0.11226753893E+02 0.12402819129E+02 0.13637193357E+02 0.14964630489E+02 0.16429040374E+02
 0.18069733590E+02 0.19902904329E+02 0.21907845503E+02 0.24018973082E+02 0.26119814391E+02
 0.28044460592E+02 0.29597081924E+02 0.30587844229E+02 0.30871444316E+02 0.30377738086E+02
 0.29129721100E+02 0.27241576010E+02 0.24892429062E+02 0.22286971385E+02 0.19621865784E+02
 0.17064646336E+02 0.14739641340E+02 0.12719765829E+02 0.11028946429E+02 0.96532304079E+01
 0.85527395276E+01 0.76730862787E+01 0.69592371285E+01 0.63670455797E+01 0.58643434567E+01
 0.54249108056E+01 0.50261662388E+01 0.46519493306E+01 0.42930151889E+01 0.39444131375E+01
 0.36055282544E+01 0.32819590892E+01 0.29832161552E+01 0.27180967159E+01 0.24948202996E+01
 0.23242374364E+01 0.22184774948E+01 0.21863476092E+01 0.22333885255E+01 0.23657485262E+01
 0.25900013657E+01 0.30265876612E+01 0.34585042710E+01 0.40053503940E+01 0.46746068965E+01
 0.54736872308E+01 0.64031627072E+01 0.74551135063E+01 0.86142228774E+01 0.98579043667E+01
 0.11159256127E+02 0.12495756802E+02 0.13857857311E+02 0.15251817218E+02 0.16699215166E+02
 0.18235198388E+02 0.19900689908E+02 0.21726560146E+02 0.23716890040E+02 0.25836944841E+02
 0.28003319871E+02 0.30076989847E+02 0.31870278193E+02 0.33175441755E+02 0.33807210068E+02
 0.33644617513E+02 0.32661371446E+02 0.30935470946E+02 0.28630569316E+02 0.25955559451E+02
 0.23123696691E+02 0.20326504252E+02 0.17718828101E+02 0.15407051353E+02 0.13443226706E+02
 0.11830379332E+02 0.10535057718E+02 0.95008338452E+01 0.86628255468E+01 0.79625767064E+01
 0.73560025462E+01 0.68110493007E+01 0.63029836107E+01 0.58146049467E+01 0.53377939045E+01
 0.48712795099E+01 0.44177618003E+01 0.39840775247E+01 0.35808761115E+01 0.32191604099E+01
 0.29084087214E+01 0.26590067877E+01 0.24834674959E+01 0.23931032919E+01 0.23957317084E+01
 0.24979973084E+01 0.27068097745E+01 0.31405866726E+01 0.35651267427E+01 0.41247098581E+01
 0.48287887640E+01 0.56888332730E+01 0.67099206992E+01 0.78860340042E+01 0.92012905548E+01
 0.10631678396E+02 0.12146350705E+02 0.13712991846E+02 0.15306424177E+02 0.16914092619E+02
 0.18537208018E+02 0.20191450368E+02 0.21905963211E+02 0.23714941259E+02 0.25642421644E+02
 0.27686615531E+02 0.29805563917E+02 0.31903067428E+02 0.33822347264E+02 0.35360105657E+02
 0.36306513086E+02 0.36495901310E+02 0.35847274739E+02 0.34388594525E+02 0.32252998194E+02
 0.29640322432E+02 0.26770981554E+02 0.23852230148E+02 0.21060290068E+02 0.18528549161E+02
 0.16337610580E+02 0.14513417614E+02 0.13036169114E+02 0.11854311907E+02 0.10899269941E+02
 0.10100819790E+02 0.93997370488E+01 0.87520931218E+01 0.81269532235E+01 0.75048993448E+01
 0.68788003927E+01 0.62520433530E+01 0.56339793587E+01 0.50373568559E+01 0.44778467052E+01
 0.39714733023E+01 0.35310187081E+01 0.31664734799E+01 0.28884342188E+01 0.27085102746E+01
 0.26366637635E+01 0.26805253954E+01 0.28467554596E+01 0.32665638829E+01 0.36542390340E+01
 0.41994893047E+01 0.49136197752E+01 0.58103611158E+01 0.68987700172E+01 0.81767619793E+01
 0.96306580311E+01 0.11237594609E+02 0.12966407063E+02 0.14779365863E+02 0.16637898850E+02
 0.18508988677E+02 0.20368492036E+02 0.22203959234E+02 0.24019300696E+02 0.25836153685E+02
 0.27686009003E+02 0.29594808399E+02 0.31564582046E+02 0.33546448523E+02 0.35421428268E+02
 0.37025451040E+02 0.38167803634E+02 0.38666774468E+02 0.38394858599E+02 0.37315542214E+02
 0.35497251653E+02 0.33099651966E+02 0.30341737837E+02 0.27455284077E+02 0.24630207970E+02
 0.22012905388E+02 0.19701461084E+02 0.17741737055E+02 0.16131704326E+02 0.14832488532E+02
 0.13780944333E+02 0.12902528053E+02 0.12124720677E+02 0.11387458181E+02 0.10647467312E+02
 0.98790349684E+01 0.90743481947E+01 0.82416938065E+01 0.73999518408E+01 0.65729226971E+01
 0.57864624551E+01 0.50658398706E+01 0.44314042419E+01 0.38965172847E+01 0.34706044955E+01
 0.31629445823E+01 0.29825040780E+01 0.29361375138E+01 0.30290894042E+01 0.34264827997E+01
 0.37451238455E+01 0.42437549074E+01 0.49360231579E+01 0.58369445851E+01 0.69582970350E+01
 0.83028909785E+01 0.98621828040E+01 0.11617548745E+02 0.13541065524E+02 0.15594746072E+02
 0.17731723773E+02 0.19900509719E+02 0.22049732969E+02 0.24133535616E+02 0.26120615935E+02
 0.28004468582E+02 0.29806185509E+02 0.31564983142E+02 0.33304096209E+02 0.34991557029E+02
 0.36579055863E+02 0.37988181341E+02 0.39095972577E+02 0.39748793785E+02 0.39802322484E+02
 0.39167844471E+02 0.37842633556E+02 0.35912898526E+02 0.33533591277E+02 0.30900864731E+02
 0.28230560724E+02 0.25712972654E+02 0.23451391733E+02 0.21496900682E+02 0.19859850835E+02
 0.18517192502E+02 0.17419602149E+02 0.16498346169E+02 0.15675007952E+02 0.14874331810E+02
 0.14035804686E+02 0.13120883423E+02 0.12116441070E+02 0.11034259934E+02 0.99050071423E+01
 0.87687824052E+01 0.76675215604E+01 0.66407654650E+01 0.57218383615E+01 0.49341339554E+01
 0.42910918698E+01 0.38001572557E+01 0.34660879110E+01 0.32914530463E+01 0.32773953135E+01
 0.36463278238E+01 0.38626416677E+01 0.42794805708E+01 0.49122614499E+01 0.57774936371E+01
 0.68891863954E+01 0.82551468454E+01 0.98737853820E+01 0.11733175146E+02 0.13811291255E+02
 0.16074545170E+02 0.18474903997E+02 0.20948930433E+02 0.23420814076E+02 0.25809997978E+02
 0.28044505167E+02 0.30078239343E+02 0.31904068469E+02 0.33547087184E+02 0.34992108166E+02
 0.36225638733E+02 0.37274751075E+02 0.38172197851E+02 0.38912949414E+02 0.39431841939E+02
 0.39619778065E+02 0.39368606925E+02 0.38616671820E+02 0.37371288011E+02 0.35703255547E+02
 0.33726366656E+02 0.31580147353E+02 0.29423870618E+02 0.27427449147E+02 0.25679339378E+02
 0.24187872961E+02 0.22938539707E+02 0.21896980384E+02 0.21007882690E+02 0.20196931432E+02
 0.19380206808E+02 0.18479340179E+02 0.17436763242E+02 0.16226761301E+02 0.14859902158E+02
 0.13378548826E+02 0.11844208763E+02 0.10323195549E+02 0.88772527699E+01 0.75589729688E+01
 0.64081166127E+01 0.54489618402E+01 0.46917868286E+01 0.41376801713E+01 0.37826391170E+01
 0.36203576585E+01 0.39561143467E+01 0.40338218152E+01 0.43327566023E+01 0.48663195047E+01
 0.56520998095E+01 0.67067959863E+01 0.80431912684E+01 0.96669669939E+01 0.11573822761E+02
 0.13748771976E+02 0.16165498690E+02 0.18781818636E+02 0.21532531476E+02 0.24326366300E+02
 0.27052607614E+02 0.29598141191E+02 0.31871039407E+02 0.33822233244E+02 0.35420772504E+02
 0.36579007446E+02 0.37275349324E+02 0.37586437610E+02 0.37656334229E+02 0.37634384968E+02
 0.37610615572E+02 0.37586334383E+02 0.37494740321E+02 0.37250739698E+02 0.36793701144E+02
 0.36101412381E+02 0.35180415850E+02 0.34054583780E+02 0.32769711808E+02 0.31411974766E+02
 0.30118852285E+02 0.28999053660E+02 0.28044895690E+02 0.27228608728E+02 0.26507861426E+02
 0.25818354113E+02 0.25074612281E+02 0.24182711086E+02 0.23061444478E+02 0.21663880439E+02
 0.19991529347E+02 0.18095613907E+02 0.16063871105E+02 0.13998536340E+02 0.11996532988E+02
 0.10138930566E+02 0.84874181958E+01 0.70826806081E+01 0.59443752656E+01 0.50746783030E+01
 0.44640168842E+01 0.40965311479E+01 0.43941267704E+01 0.42884368286E+01 0.44315752585E+01
 0.48274267133E+01 0.54910885658E+01 0.64414696361E+01 0.76961161144E+01 0.92672269534E+01
 0.11157670930E+02 0.13359465787E+02 0.15854500069E+02 0.18611036588E+02 0.21572386618E+02
 0.24645328488E+02 0.27700577344E+02 0.30590151330E+02 0.33176139998E+02 0.35359278259E+02
 0.37023549882E+02 0.37986689858E+02 0.38172363348E+02 0.37657328271E+02 0.36663215644E+02
 0.35497357541E+02 0.34456025421E+02 0.33736111225E+02 0.33401987080E+02 0.33413859837E+02
 0.33680818612E+02 0.34096522139E+02 0.34546109897E+02 0.34905163281E+02 0.35057615460E+02
 0.34938277963E+02 0.34577059214E+02 0.34110680642E+02 0.33694923716E+02 0.33334340985E+02
 0.32992552631E+02 0.32612085997E+02 0.32105426137E+02 0.31361020692E+02 0.30266526005E+02
 0.28741812147E+02 0.26768183940E+02 0.24401219487E+02 0.21760515575E+02 0.18999569421E+02
 0.16270133945E+02 0.13697919752E+02 0.11375406593E+02 0.93641745346E+01 0.76979435734E+01
 0.63853053809E+01 0.54146216818E+01 0.47609488933E+01 0.50130370838E+01 0.46634555586E+01
 0.46065787429E+01 0.48274252982E+01 0.53309454487E+01 0.61343469901E+01 0.72581677788E+01
 0.87195866310E+01 0.10527484124E+02 0.12680475412E+02 0.15168635397E+02 0.17972376724E+02
 0.21050325819E+02 0.24320421608E+02 0.27650663168E+02 0.30871488554E+02 0.33806410103E+02
 0.36305644498E+02 0.38166745440E+02 0.39094635218E+02 0.38912409864E+02 0.37635311588E+02
 0.35498500439E+02 0.32926843614E+02 0.30432696157E+02 0.28474942466E+02 0.27350082236E+02
 0.27164468990E+02 0.27872499249E+02 0.29325636759E+02 0.31297123672E+02 0.33494869482E+02
 0.35597299355E+02 0.37326528379E+02 0.38534104778E+02 0.39252165376E+02 0.39675458417E+02
 0.40030042950E+02 0.40338582816E+02 0.40543199477E+02 0.40543133895E+02 0.40194637607E+02
 0.39335018057E+02 0.37828084680E+02 0.35614440710E+02 0.32743896913E+02 0.29373292300E+02
 0.25728235232E+02 0.22045864541E+02 0.18526419093E+02 0.15312753473E+02 0.12494587609E+02
 0.10120427452E+02 0.82059573927E+01 0.67397565570E+01 0.56900340689E+01 0.58837732867E+01
 0.52081878349E+01 0.48941278045E+01 0.48995416628E+01 0.52090290171E+01 0.58298792384E+01
 0.67807244869E+01 0.80809332437E+01 0.97438574030E+01 0.11774257687E+02 0.14170158804E+02
 0.16923879825E+02 0.20011824797E+02 0.23371825063E+02 0.26884057918E+02 0.30374211846E+02
 0.33641269070E+02 0.36494585699E+02 0.38667704085E+02 0.39749902958E+02 0.39431962740E+02
 0.37610770544E+02 0.34456836122E+02 0.30433234596E+02 0.26222885588E+02 0.22563066051E+02
 0.20059403217E+02 0.19073206385E+02 0.19711625266E+02 0.21869424242E+02 0.25261382111E+02
 0.29442312508E+02 0.33858963022E+02 0.37961948670E+02 0.41349510863E+02 0.43875912701E+02
 0.45667766628E+02 0.47039099771E+02 0.48285693393E+02 0.49412429890E+02 0.50293118899E+02
 0.50725722433E+02 0.50461152668E+02 0.49264814700E+02 0.46994941636E+02 0.43666192584E+02
 0.39467060993E+02 0.34718171366E+02 0.29787508998E+02 0.25002297201E+02 0.20596942556E+02
 0.16708772422E+02 0.13401966167E+02 0.10692930735E+02 0.85658664552E+01 0.69814846010E+01
 0.70932673385E+01 0.59861356298E+01 0.53393387413E+01 0.50792469342E+01 0.51603740533E+01
 0.55691323174E+01 0.63139372142E+01 0.74114464876E+01 0.88770833557E+01 0.10720982538E+02
 0.12948583655E+02 0.15562510991E+02 0.18555825013E+02 0.21889894106E+02 0.25468014283E+02
 0.29127249366E+02 0.32658865670E+02 0.35846192053E+02 0.38396798418E+02 0.39805490218E+02
 0.39621188697E+02 0.37585945770E+02 0.33735752504E+02 0.28474863614E+02 0.22562612758E+02
 0.16965409770E+02 0.12617454431E+02 0.10213008334E+02 0.10119911571E+02 0.12390253839E+02
 0.16783989757E+02 0.22776332767E+02 0.29604554735E+02 0.36412482852E+02 0.42469570912E+02
 0.47366812891E+02 0.51093320947E+02 0.53963374710E+02 0.56435853061E+02 0.58815624006E+02
 0.61002325484E+02 0.62714284053E+02 0.63571258247E+02 0.63178636527E+02 0.61241646555E+02
 0.57674599761E+02 0.52658952981E+02 0.46615692315E+02 0.40094517179E+02 0.33627577189E+02
 0.27616317057E+02 0.22294415915E+02 0.17757083526E+02 0.14013771708E+02 0.11029558225E+02
 0.87467676687E+01 0.87347407416E+01 0.70708063731E+01 0.59962135561E+01 0.54057610081E+01
 0.52176925420E+01 0.53868710655E+01 0.59011274826E+01 0.67670907448E+01 0.79980673128E+01
 0.96077723883E+01 0.11608037115E+02 0.14009176940E+02 0.16816876058E+02 0.20015079565E+02
 0.23536871861E+02 0.27244523506E+02 0.30938151071E+02 0.34389707300E+02 0.37317113911E+02
 0.39170300282E+02 0.39369606550E+02 0.37493545684E+02 0.33400741195E+02 0.27349816760E+02
 0.20058741402E+02 0.12616183622E+02 0.62332363786E+01 0.19543912353E+01 0.47776828818E+00
 0.21154420696E+01 0.67987834173E+01 0.14055605451E+02 0.23013226800E+02 0.32536884029E+02
 0.41518500754E+02 0.49193016985E+02 0.55320865520E+02 0.60157521840E+02 0.64247079340E+02
 0.68140066577E+02 0.72006544465E+02 0.75515416188E+02 0.78125775709E+02 0.79219438891E+02
 0.78258098208E+02 0.74951165769E+02 0.69380158626E+02 0.62019230805E+02 0.53621788028E+02
 0.45010225589E+02 0.36866237963E+02 0.29616686397E+02 0.23440544643E+02 0.18348406577E+02
 0.14267727406E+02 0.11098147495E+02 0.10893854411E+02 0.85354359786E+01 0.69229796466E+01
 0.59217230305E+01 0.54127398744E+01 0.53120015272E+01 0.55765541691E+01 0.61941334768E+01
 0.71695816843E+01 0.85163468819E+01 0.10250741482E+02 0.12388227962E+02 0.14941762835E+02
 0.17912722778E+02 0.21265570472E+02 0.24898586971E+02 0.28636625424E+02 0.32255494942E+02
 0.35497279434E+02 0.37842430527E+02 0.38615717702E+02 0.37248284503E+02 0.33412009337E+02
 0.27165023267E+02 0.19074213641E+02 0.10212073753E+02 0.19527740176E+01 -.43596358293E+01
 -.76853284912E+01 -.73959353623E+01 -.32885814039E+01 0.43651135777E+01 0.14749798702E+02
 0.26574706233E+02 0.38380052834E+02 0.48977397665E+02 0.57789896741E+02 0.64921740394E+02
 0.70956239170E+02 0.76608441770E+02 0.82363938623E+02 0.88059883458E+02 0.93014517044E+02
 0.96352999867E+02 0.97213243164E+02 0.94977981493E+02 0.89483874113E+02 0.81131231321E+02
 0.70820474772E+02 0.59707905365E+02 0.48880434184E+02 0.39105789431E+02 0.30758275337E+02
 0.23899314356E+02 0.18416313084E+02 0.14137487746E+02 0.13636867408E+02 0.10439695731E+02
 0.81727865604E+01 0.66694346865E+01 0.57765058730E+01 0.53689997546E+01 0.53654438964E+01
 0.57259969204E+01 0.64395129978E+01 0.75128352824E+01 0.89627958345E+01 0.10808108755E+02
 0.13065254532E+02 0.15745911150E+02 0.18841334595E+02 0.22290925988E+02 0.25958457999E+02
 0.29640041477E+02 0.33096825147E+02 0.35910392475E+02 0.37369710512E+02 0.36791583872E+02
 0.33679020630E+02 0.27873551315E+02 0.19714645706E+02 0.10121162493E+02 0.47650666242E+00
 -.76863812684E+01 -.13030318632E+02 -.14605609477E+02 -.11893320806E+02 -.48592869094E+01
 0.59152937345E+01 0.19183684398E+02 0.33268740799E+02 0.46570555117E+02 0.58083985290E+02
 0.67638140272E+02 0.75764222180E+02 0.83309109083E+02 0.90991458109E+02 0.98992603907E+02
 0.10665045613E+03 0.11286301993E+03 0.11641470788E+03 0.11626741364E+03 0.11185545153E+03
 0.10331122446E+03 0.91516007897E+02 0.77896766266E+02 0.64016140859E+02 0.51145375842E+02