   9   9   0   0
  0.1255842E+02  0.4913800E-09  0.4913800E-09  0.5405200E-09  0.5000000E-15
  1.000000000000000E-004
  CAR 
 unknown system                          
     14.61539433    -20.37195611  301      1.11610829      1.00000000
    -20.372  0.0000E+00  0.0000E+00
    -20.255  0.0000E+00  0.0000E+00
    -20.139  0.0000E+00  0.0000E+00
    -20.022  0.0000E+00  0.0000E+00
    -19.905  0.0000E+00  0.0000E+00
    -19.789  0.0000E+00  0.0000E+00
    -19.672  0.0000E+00  0.0000E+00
    -19.556  0.0000E+00  0.0000E+00
    -19.439  0.0000E+00  0.0000E+00
    -19.322  0.0000E+00  0.0000E+00
    -19.206  0.0000E+00  0.0000E+00
    -19.089  0.0000E+00  0.0000E+00
    -18.972  0.0000E+00  0.0000E+00
    -18.856  0.0000E+00  0.0000E+00
    -18.739  0.0000E+00  0.0000E+00
    -18.623  0.0000E+00  0.0000E+00
    -18.506  0.0000E+00  0.0000E+00
    -18.389  0.0000E+00  0.0000E+00
    -18.273  0.1067E+01  0.4108E-01
    -18.156  0.1771E+01  0.2022E+00
    -18.039  0.3242E+01  0.4727E+00
    -17.923  0.5009E+01  0.9602E+00
    -17.806  0.5846E+01  0.1858E+01
    -17.690  0.1092E+01  0.2011E+01
    -17.573  0.1693E+01  0.2162E+01
    -17.456  0.3940E+01  0.2457E+01
    -17.340  0.5384E+01  0.3439E+01
    -17.223  0.1702E+01  0.3781E+01
    -17.106  0.7670E+00  0.3916E+01
    -16.990  0.7289E+00  0.3989E+01
    -16.873  0.4616E+01  0.4211E+01
    -16.757  0.5329E+01  0.5175E+01
    -16.640  0.2336E+01  0.5567E+01
    -16.523  0.1389E+01  0.5777E+01
    -16.407  0.8753E+00  0.5911E+01
    -16.290  0.3673E+00  0.5989E+01
    -16.173  0.6811E+02  0.1102E+02
    -16.057  0.0000E+00  0.1200E+02
    -15.940  0.0000E+00  0.1200E+02
    -15.824  0.0000E+00  0.1200E+02
    -15.707  0.0000E+00  0.1200E+02
    -15.590  0.0000E+00  0.1200E+02
    -15.474  0.0000E+00  0.1200E+02
    -15.357  0.0000E+00  0.1200E+02
    -15.240  0.0000E+00  0.1200E+02
    -15.124  0.0000E+00  0.1200E+02
    -15.007  0.0000E+00  0.1200E+02
    -14.891  0.0000E+00  0.1200E+02
    -14.774  0.0000E+00  0.1200E+02
    -14.657  0.0000E+00  0.1200E+02
    -14.541  0.0000E+00  0.1200E+02
    -14.424  0.0000E+00  0.1200E+02
    -14.307  0.0000E+00  0.1200E+02
    -14.191  0.0000E+00  0.1200E+02
    -14.074  0.0000E+00  0.1200E+02
    -13.958  0.0000E+00  0.1200E+02
    -13.841  0.0000E+00  0.1200E+02
    -13.724  0.0000E+00  0.1200E+02
    -13.608  0.0000E+00  0.1200E+02
    -13.491  0.0000E+00  0.1200E+02
    -13.374  0.0000E+00  0.1200E+02
    -13.258  0.0000E+00  0.1200E+02
    -13.141  0.0000E+00  0.1200E+02
    -13.025  0.0000E+00  0.1200E+02
    -12.908  0.0000E+00  0.1200E+02
    -12.791  0.0000E+00  0.1200E+02
    -12.675  0.0000E+00  0.1200E+02
    -12.558  0.0000E+00  0.1200E+02
    -12.441  0.0000E+00  0.1200E+02
    -12.325  0.0000E+00  0.1200E+02
    -12.208  0.0000E+00  0.1200E+02
    -12.092  0.0000E+00  0.1200E+02
    -11.975  0.0000E+00  0.1200E+02
    -11.858  0.0000E+00  0.1200E+02
    -11.742  0.0000E+00  0.1200E+02
    -11.625  0.0000E+00  0.1200E+02
    -11.508  0.0000E+00  0.1200E+02
    -11.392  0.0000E+00  0.1200E+02
    -11.275  0.0000E+00  0.1200E+02
    -11.159  0.0000E+00  0.1200E+02
    -11.042  0.0000E+00  0.1200E+02
    -10.925  0.0000E+00  0.1200E+02
    -10.809  0.0000E+00  0.1200E+02
    -10.692  0.0000E+00  0.1200E+02
    -10.575  0.0000E+00  0.1200E+02
    -10.459  0.0000E+00  0.1200E+02
    -10.342  0.0000E+00  0.1200E+02
    -10.226  0.0000E+00  0.1200E+02
    -10.109  0.0000E+00  0.1200E+02
     -9.992  0.0000E+00  0.1200E+02
     -9.876  0.0000E+00  0.1200E+02
     -9.759  0.0000E+00  0.1200E+02
     -9.643  0.0000E+00  0.1200E+02
     -9.526  0.0000E+00  0.1200E+02
     -9.409  0.0000E+00  0.1200E+02
     -9.293  0.0000E+00  0.1200E+02
     -9.176  0.0000E+00  0.1200E+02
     -9.059  0.0000E+00  0.1200E+02
     -8.943  0.0000E+00  0.1200E+02
     -8.826  0.0000E+00  0.1200E+02
     -8.710  0.0000E+00  0.1200E+02
     -8.593  0.0000E+00  0.1200E+02
     -8.476  0.0000E+00  0.1200E+02
     -8.360  0.0000E+00  0.1200E+02
     -8.243  0.0000E+00  0.1200E+02
     -8.126  0.2144E+00  0.1201E+02
     -8.010  0.4076E+00  0.1205E+02
     -7.893  0.6106E+00  0.1211E+02
     -7.777  0.8273E+00  0.1220E+02
     -7.660  0.1097E+01  0.1230E+02
     -7.543  0.1528E+01  0.1246E+02
     -7.427  0.2444E+01  0.1268E+02
     -7.310  0.9349E+01  0.1325E+02
     -7.193  0.2075E+01  0.1382E+02
     -7.077  0.5702E+00  0.1395E+02
     -6.960  0.2990E+00  0.1400E+02
     -6.844  0.2270E+00  0.1403E+02
     -6.727  0.3651E+00  0.1406E+02
     -6.610  0.5533E+00  0.1412E+02
     -6.494  0.9359E+00  0.1420E+02
     -6.377  0.1563E+01  0.1434E+02
     -6.260  0.4183E+01  0.1463E+02
     -6.144  0.3559E+01  0.1526E+02
     -6.027  0.2000E+01  0.1558E+02
     -5.911  0.1158E+01  0.1576E+02
     -5.794  0.7797E+00  0.1587E+02
     -5.677  0.5152E+00  0.1594E+02
     -5.561  0.2430E+00  0.1600E+02
     -5.444  0.9163E+00  0.1603E+02
     -5.327  0.2898E+01  0.1625E+02
     -5.211  0.3038E+01  0.1665E+02
     -5.094  0.2903E+01  0.1699E+02
     -4.978  0.2509E+01  0.1731E+02
     -4.861  0.1708E+01  0.1756E+02
     -4.744  0.1251E+01  0.1773E+02
     -4.628  0.8969E+00  0.1785E+02
     -4.511  0.7191E+00  0.1794E+02
     -4.394  0.3936E+01  0.1814E+02
     -4.278  0.1052E+02  0.1979E+02
     -4.161  0.5865E+01  0.2075E+02
     -4.045  0.5838E+01  0.2150E+02
     -3.928  0.2373E+01  0.2208E+02
     -3.811  0.8294E+01  0.2276E+02
     -3.695  0.4569E+01  0.2354E+02
     -3.578  0.2013E+01  0.2392E+02
     -3.461  0.1299E-02  0.2400E+02
     -3.345  0.0000E+00  0.2400E+02
     -3.228  0.0000E+00  0.2400E+02
     -3.112  0.0000E+00  0.2400E+02
     -2.995  0.0000E+00  0.2400E+02
     -2.878  0.0000E+00  0.2400E+02
     -2.762  0.0000E+00  0.2400E+02
     -2.645  0.0000E+00  0.2400E+02
     -2.528  0.0000E+00  0.2400E+02
     -2.412  0.0000E+00  0.2400E+02
     -2.295  0.0000E+00  0.2400E+02
     -2.179  0.4888E+00  0.2400E+02
     -2.062  0.1496E+02  0.2500E+02
     -1.945  0.6058E+01  0.2606E+02
     -1.829  0.6906E+01  0.2672E+02
     -1.712  0.6584E+01  0.2763E+02
     -1.595  0.6052E+01  0.2831E+02
     -1.479  0.6155E+01  0.2937E+02
     -1.362  0.2563E+01  0.2996E+02
     -1.246  0.4220E+01  0.3015E+02
     -1.129  0.8280E+01  0.3149E+02
     -1.012  0.2732E+01  0.3197E+02
     -0.896  0.1639E+02  0.3351E+02
     -0.779  0.2093E+01  0.3395E+02
     -0.662  0.5918E+01  0.3445E+02
     -0.546  0.9164E+01  0.3523E+02
     -0.429  0.1013E+02  0.3651E+02
     -0.313  0.4796E+01  0.3753E+02
     -0.196  0.5401E+01  0.3809E+02
     -0.079  0.1094E+02  0.3935E+02
      0.037  0.3637E+01  0.4017E+02
      0.154  0.1627E+02  0.4153E+02
      0.271  0.1633E+01  0.4202E+02
      0.387  0.1348E+02  0.4301E+02
      0.504  0.4134E+01  0.4379E+02
      0.620  0.4573E+01  0.4433E+02
      0.737  0.9138E+01  0.4510E+02
      0.854  0.4829E+01  0.4615E+02
      0.970  0.9270E+01  0.4695E+02
      1.087  0.4428E+00  0.4800E+02
      1.204  0.0000E+00  0.4800E+02
      1.320  0.0000E+00  0.4800E+02
      1.437  0.0000E+00  0.4800E+02
      1.553  0.0000E+00  0.4800E+02
      1.670  0.0000E+00  0.4800E+02
      1.787  0.0000E+00  0.4800E+02
      1.903  0.0000E+00  0.4800E+02
      2.020  0.0000E+00  0.4800E+02
      2.137  0.0000E+00  0.4800E+02
      2.253  0.0000E+00  0.4800E+02
      2.370  0.0000E+00  0.4800E+02
      2.486  0.0000E+00  0.4800E+02
      2.603  0.0000E+00  0.4800E+02
      2.720  0.0000E+00  0.4800E+02
      2.836  0.0000E+00  0.4800E+02
      2.953  0.0000E+00  0.4800E+02
      3.070  0.0000E+00  0.4800E+02
      3.186  0.0000E+00  0.4800E+02
      3.303  0.0000E+00  0.4800E+02
      3.419  0.0000E+00  0.4800E+02
      3.536  0.0000E+00  0.4800E+02
      3.653  0.0000E+00  0.4800E+02
      3.769  0.0000E+00  0.4800E+02
      3.886  0.0000E+00  0.4800E+02
      4.003  0.0000E+00  0.4800E+02
      4.119  0.0000E+00  0.4800E+02
      4.236  0.0000E+00  0.4800E+02
      4.352  0.0000E+00  0.4800E+02
      4.469  0.0000E+00  0.4800E+02
      4.586  0.0000E+00  0.4800E+02
      4.702  0.0000E+00  0.4800E+02
      4.819  0.0000E+00  0.4800E+02
      4.936  0.0000E+00  0.4800E+02
      5.052  0.0000E+00  0.4800E+02
      5.169  0.0000E+00  0.4800E+02
      5.285  0.0000E+00  0.4800E+02
      5.402  0.0000E+00  0.4800E+02
      5.519  0.0000E+00  0.4800E+02
      5.635  0.0000E+00  0.4800E+02
      5.752  0.0000E+00  0.4800E+02
      5.869  0.0000E+00  0.4800E+02
      5.985  0.0000E+00  0.4800E+02
      6.102  0.0000E+00  0.4800E+02
      6.218  0.0000E+00  0.4800E+02
      6.335  0.0000E+00  0.4800E+02
      6.452  0.0000E+00  0.4800E+02
      6.568  0.0000E+00  0.4800E+02
      6.685  0.0000E+00  0.4800E+02
      6.802  0.0000E+00  0.4800E+02
      6.918  0.0000E+00  0.4800E+02
      7.035  0.0000E+00  0.4800E+02
      7.151  0.9640E-03  0.4800E+02
      7.268  0.2187E-01  0.4800E+02
      7.385  0.7008E-01  0.4801E+02
      7.501  0.1456E+00  0.4802E+02
      7.618  0.2227E+00  0.4804E+02
      7.735  0.2637E+00  0.4807E+02
      7.851  0.2864E+00  0.4810E+02
      7.968  0.3215E+00  0.4814E+02
      8.084  0.3692E+00  0.4818E+02
      8.201  0.4195E+00  0.4822E+02
      8.318  0.4724E+00  0.4827E+02
      8.434  0.5275E+00  0.4833E+02
      8.551  0.6329E+00  0.4840E+02
      8.668  0.7889E+00  0.4848E+02
      8.784  0.8043E+00  0.4858E+02
      8.901  0.8656E+00  0.4868E+02
      9.017  0.9289E+00  0.4878E+02
      9.134  0.9942E+00  0.4889E+02
      9.251  0.1061E+01  0.4901E+02
      9.367  0.1524E+01  0.4917E+02
      9.484  0.1397E+01  0.4934E+02
      9.601  0.1249E+01  0.4949E+02
      9.717  0.1382E+01  0.4964E+02
      9.834  0.1490E+01  0.4982E+02
      9.950  0.1851E+01  0.5003E+02
     10.067  0.1109E+01  0.5019E+02
     10.184  0.1881E+01  0.5034E+02
     10.300  0.5731E+01  0.5073E+02
     10.417  0.7104E+01  0.5183E+02
     10.534  0.4130E+01  0.5234E+02
     10.650  0.8236E+01  0.5308E+02
     10.767  0.6635E+01  0.5397E+02
     10.883  0.2535E+01  0.5446E+02
     11.000  0.4132E+01  0.5481E+02
     11.117  0.7832E+01  0.5555E+02
     11.233  0.4875E+01  0.5610E+02
     11.350  0.6672E+01  0.5680E+02
     11.467  0.6319E+01  0.5763E+02
     11.583  0.1559E+01  0.5805E+02
     11.700  0.1402E+02  0.5890E+02
     11.816  0.2461E+01  0.5962E+02
     11.933  0.8748E+00  0.5979E+02
     12.050  0.5594E+00  0.5987E+02
     12.166  0.4003E+00  0.5993E+02
     12.283  0.2629E+00  0.5997E+02
     12.400  0.1431E+00  0.5999E+02
     12.516  0.3024E-01  0.6000E+02
     12.633  0.0000E+00  0.6000E+02
     12.749  0.0000E+00  0.6000E+02
     12.866  0.0000E+00  0.6000E+02
     12.983  0.0000E+00  0.6000E+02
     13.099  0.0000E+00  0.6000E+02
     13.216  0.0000E+00  0.6000E+02
     13.333  0.0000E+00  0.6000E+02
     13.449  0.0000E+00  0.6000E+02
     13.566  0.0000E+00  0.6000E+02
     13.682  0.0000E+00  0.6000E+02
     13.799  0.0000E+00  0.6000E+02
     13.916  0.0000E+00  0.6000E+02
     14.032  0.0000E+00  0.6000E+02
     14.149  0.0000E+00  0.6000E+02
     14.266  0.0000E+00  0.6000E+02
     14.382  0.0000E+00  0.6000E+02
     14.499  0.0000E+00  0.6000E+02
     14.615  0.0000E+00  0.6000E+02
