       N       E                     dE             d eps       ncg     rms          rms(c)
DAV:   1     0.316190229791E+03    0.31619E+03   -0.26548E+04  1620   0.155E+03
DAV:   2    -0.603511525498E+02   -0.37654E+03   -0.36838E+03  2134   0.340E+02
DAV:   3    -0.803745688924E+02   -0.20023E+02   -0.19959E+02  1944   0.874E+01
DAV:   4    -0.806229918074E+02   -0.24842E+00   -0.24806E+00  1938   0.107E+01
DAV:   5    -0.806275213407E+02   -0.45295E-02   -0.45287E-02  1860   0.143E+00    0.188E+01
RMM:   6    -0.710053074331E+02    0.96222E+01   -0.40554E+01  1720   0.331E+01    0.511E+00
RMM:   7    -0.709861128040E+02    0.19195E-01   -0.14976E+00  1903   0.557E+00    0.338E+00
RMM:   8    -0.710047513869E+02   -0.18639E-01   -0.25091E-01  1827   0.404E+00    0.624E-01
RMM:   9    -0.709976828120E+02    0.70686E-02   -0.55379E-02  1936   0.121E+00    0.131E-01
RMM:  10    -0.710006890509E+02   -0.30062E-02   -0.13942E-02  1893   0.612E-01    0.229E-01
RMM:  11    -0.709993943141E+02    0.12947E-02   -0.25421E-03  1936   0.285E-01    0.647E-02
RMM:  12    -0.709993448236E+02    0.49490E-04   -0.81021E-04  1924   0.147E-01    0.752E-03
RMM:  13    -0.709993466401E+02   -0.18165E-05   -0.20975E-05  1330   0.269E-02
   1 F= -.70999347E+02 E0= -.70999347E+02  d E =0.000000E+00
