Starting job 12684648 on c5-[16,25] on saga at Wed Sep 18 14:38:00 CEST 2024

The following modules were not unloaded:
  (Use "module --force purge" to unload all):

  1) StdEnv
 running on    4 total cores
 distrk:  each k-point on    4 cores,    1 groups
 distr:  one band on    2 cores,    2 groups
 using from now: INCAR     
 vasp.5.4.4.18Apr17-6-g9f103f2a35 (build Jul 15 2019 14:02:39) complex          
  
 POSCAR found type information on POSCAR  Si O 
 POSCAR found :  2 types and       9 ions
 scaLAPACK will be used
 LDA part: xc-table for Pade appr. of Perdew
 POSCAR, INCAR and KPOINTS ok, starting setup
 FFT: planning ...
 WAVECAR not read
 entering main loop
       N       E                     dE             d eps       ncg     rms          rms(c)
DAV:   1     0.316190229791E+03    0.31619E+03   -0.26548E+04  1620   0.155E+03
DAV:   2    -0.603511525498E+02   -0.37654E+03   -0.36838E+03  2134   0.340E+02
DAV:   3    -0.803745688924E+02   -0.20023E+02   -0.19959E+02  1944   0.874E+01
DAV:   4    -0.806229918074E+02   -0.24842E+00   -0.24806E+00  1938   0.107E+01
DAV:   5    -0.806275213407E+02   -0.45295E-02   -0.45287E-02  1860   0.143E+00    0.188E+01
RMM:   6    -0.710053074331E+02    0.96222E+01   -0.40554E+01  1720   0.331E+01    0.511E+00
RMM:   7    -0.709861128040E+02    0.19195E-01   -0.14976E+00  1903   0.557E+00    0.338E+00
RMM:   8    -0.710047513869E+02   -0.18639E-01   -0.25091E-01  1827   0.404E+00    0.624E-01
RMM:   9    -0.709976828120E+02    0.70686E-02   -0.55379E-02  1936   0.121E+00    0.131E-01
RMM:  10    -0.710006890509E+02   -0.30062E-02   -0.13942E-02  1893   0.612E-01    0.229E-01
RMM:  11    -0.709993943141E+02    0.12947E-02   -0.25421E-03  1936   0.285E-01    0.647E-02
RMM:  12    -0.709993448236E+02    0.49490E-04   -0.81021E-04  1924   0.147E-01    0.752E-03
RMM:  13    -0.709993466401E+02   -0.18165E-05   -0.20975E-05  1330   0.269E-02
   1 F= -.70999347E+02 E0= -.70999347E+02  d E =0.000000E+00

Job 12684648 consumed 0.0 billing hours from project nn9988k.

Submitted 2024-09-18T14:37:59; waited 1.0 seconds in the queue after becoming eligible to run.

Requested wallclock time: 10.0 minutes
Elapsed wallclock time:   24.0 seconds

Task and CPU statistics:
ID              CPUs  Tasks  CPU util                Start  Elapsed  Exit status
12684648           4            0.0 %  2024-09-18T14:38:00   24.0 s  0
12684648.batch     2      1     5.2 %  2024-09-18T14:38:00   24.0 s  0
12684648.vasp      4      4    88.5 %  2024-09-18T14:38:03   21.0 s  0

Used CPU time:   1.3 CPU minutes
Unused CPU time: 19.1 CPU seconds

Memory statistics, in GiB:
ID               Alloc   Usage
12684648          14.8        
12684648.batch     7.4     0.0
12684648.vasp     14.8     0.3

Job 12684648 completed at Wed Sep 18 14:38:25 CEST 2024
