<?xml version="1.0" encoding="ISO-8859-1"?>
<modeling>
 <generator>
  <i name="program" type="string">vasp </i>
  <i name="version" type="string">5.4.4.18Apr17-6-g9f103f2a35  </i>
  <i name="subversion" type="string">(build Jul 15 2019 14:02:39) complex            parallel </i>
  <i name="platform" type="string">TEST </i>
  <i name="date" type="string">2024 09 18 </i>
  <i name="time" type="string">14:38:05 </i>
 </generator>
 <incar>
  <i type="string" name="PREC">normal    ! low/normal/accurate</i>
  <i type="string" name="ALGO"> Fast      ! Algorithm for electronic re</i>
  <i type="int" name="ISPIN">     1</i>
  <i type="int" name="NELMIN">     4</i>
  <i name="EDIFF">      0.00001000</i>
  <i type="int" name="NSW">     0</i>
  <i name="ENCUT">    550.00000000</i>
  <i type="string" name="LREAL"> Auto      ! Projection in reciprocal sp</i>
  <i type="int" name="ISMEAR">    -5</i>
  <i name="SIGMA">      0.20000000</i>
  <i type="logical" name="LWAVE"> F  </i>
  <v type="int" name="KPOINT_BSE">    -1     0     0     0</v>
 </incar>
 <structure name="primitive_cell" >
  <crystal>
   <varray name="basis" >
    <v>       4.91380000       0.00000000       0.00000000 </v>
    <v>      -2.45690000       4.25547563       0.00000000 </v>
    <v>       0.00000000       0.00000000       5.40520000 </v>
   </varray>
   <i name="volume">    113.02573808 </i>
   <varray name="rec_basis" >
    <v>       0.20350849       0.11749568       0.00000000 </v>
    <v>       0.00000000       0.23499136       0.00000000 </v>
    <v>       0.00000000       0.00000000       0.18500703 </v>
   </varray>
  </crystal>
  <varray name="positions" >
   <v>       0.46980000       0.00000000      -0.33333333 </v>
   <v>       0.14830000      -0.26620000      -0.45226667 </v>
   <v>       0.41450000       0.26620000      -0.21440000 </v>
   <v>      -0.26620000       0.14830000       0.45226667 </v>
   <v>      -0.41450000      -0.14830000      -0.11893333 </v>
   <v>       0.00000000       0.46980000       0.33333333 </v>
   <v>      -0.46980000      -0.46980000       0.00000000 </v>
   <v>       0.26620000       0.41450000       0.21440000 </v>
   <v>      -0.14830000      -0.41450000       0.11893333 </v>
  </varray>
 </structure>
 <varray name="primitive_index" >
  <v type="int" >        1 </v>
  <v type="int" >        6 </v>
  <v type="int" >        4 </v>
  <v type="int" >        9 </v>
  <v type="int" >        5 </v>
  <v type="int" >        3 </v>
  <v type="int" >        2 </v>
  <v type="int" >        7 </v>
  <v type="int" >        8 </v>
 </varray>
 <kpoints>
  <generation param="Gamma">
   <v type="int" name="divisions">       6        6        5 </v>
   <v name="usershift">      0.00000000       0.00000000       0.00000000 </v>
   <v name="genvec1">      0.16666667      -0.00000000       0.00000000 </v>
   <v name="genvec2">      0.00000000       0.16666667       0.00000000 </v>
   <v name="genvec3">      0.00000000       0.00000000       0.20000000 </v>
   <v name="shift">      0.00000000       0.00000000       0.00000000 </v>
  </generation>
  <varray name="kpointlist" >
   <v>       0.00000000       0.00000000       0.00000000 </v>
   <v>       0.16666667       0.00000000       0.00000000 </v>
   <v>       0.33333333       0.00000000       0.00000000 </v>
   <v>       0.50000000       0.00000000       0.00000000 </v>
   <v>       0.16666667       0.16666667       0.00000000 </v>
   <v>       0.33333333       0.16666667       0.00000000 </v>
   <v>       0.33333333       0.33333333       0.00000000 </v>
   <v>       0.00000000       0.00000000       0.20000000 </v>
   <v>       0.16666667       0.00000000       0.20000000 </v>
   <v>       0.33333333       0.00000000       0.20000000 </v>
   <v>       0.50000000       0.00000000       0.20000000 </v>
   <v>      -0.33333333       0.00000000       0.20000000 </v>
   <v>      -0.16666667       0.00000000       0.20000000 </v>
   <v>       0.16666667       0.16666667       0.20000000 </v>
   <v>       0.33333333       0.16666667       0.20000000 </v>
   <v>       0.50000000       0.16666667       0.20000000 </v>
   <v>       0.33333333       0.33333333       0.20000000 </v>
   <v>       0.00000000       0.00000000       0.40000000 </v>
   <v>       0.16666667       0.00000000       0.40000000 </v>
   <v>       0.33333333       0.00000000       0.40000000 </v>
   <v>       0.50000000       0.00000000       0.40000000 </v>
   <v>      -0.33333333       0.00000000       0.40000000 </v>
   <v>      -0.16666667       0.00000000       0.40000000 </v>
   <v>       0.16666667       0.16666667       0.40000000 </v>
   <v>       0.33333333       0.16666667       0.40000000 </v>
   <v>       0.50000000       0.16666667       0.40000000 </v>
   <v>       0.33333333       0.33333333       0.40000000 </v>
  </varray>
  <varray name="weights" >
   <v>       0.00555556 </v>
   <v>       0.03333333 </v>
   <v>       0.03333333 </v>
   <v>       0.01666667 </v>
   <v>       0.03333333 </v>
   <v>       0.06666667 </v>
   <v>       0.01111111 </v>
   <v>       0.01111111 </v>
   <v>       0.03333333 </v>
   <v>       0.03333333 </v>
   <v>       0.03333333 </v>
   <v>       0.03333333 </v>
   <v>       0.03333333 </v>
   <v>       0.06666667 </v>
   <v>       0.06666667 </v>
   <v>       0.06666667 </v>
   <v>       0.02222222 </v>
   <v>       0.01111111 </v>
   <v>       0.03333333 </v>
   <v>       0.03333333 </v>
   <v>       0.03333333 </v>
   <v>       0.03333333 </v>
   <v>       0.03333333 </v>
   <v>       0.06666667 </v>
   <v>       0.06666667 </v>
   <v>       0.06666667 </v>
   <v>       0.02222222 </v>
  </varray>
  <varray name="tetrahedronlist"  type="int" >
   <v type="int" >        4        2        2        5       13 </v>
   <v type="int" >        4        1        2        2       13 </v>
   <v type="int" >        4        1        2        8       13 </v>
   <v type="int" >        4        2        5       13       14 </v>
   <v type="int" >        8        2        9       13       14 </v>
   <v type="int" >        8        2        8        9       13 </v>
   <v type="int" >        8        3        5        6       14 </v>
   <v type="int" >        8        2        3        5       14 </v>
   <v type="int" >        4        2        3        9       14 </v>
   <v type="int" >        4        3        6       14       15 </v>
   <v type="int" >        4        3       10       14       15 </v>
   <v type="int" >        4        3        9       10       14 </v>
   <v type="int" >        4        4        6        6       15 </v>
   <v type="int" >        4        3        4        6       15 </v>
   <v type="int" >        4        3        4       10       15 </v>
   <v type="int" >        4        4        6       15       16 </v>
   <v type="int" >        4        4       11       15       16 </v>
   <v type="int" >        4        4       10       11       15 </v>
   <v type="int" >        4        3        5        6       16 </v>
   <v type="int" >        4        3        4        6       16 </v>
   <v type="int" >        4        3        4       11       16 </v>
   <v type="int" >        4        3        5       14       16 </v>
   <v type="int" >        4        3       12       14       16 </v>
   <v type="int" >        4        3       11       12       16 </v>
   <v type="int" >        4        2        2        5       14 </v>
   <v type="int" >        4        2        3       12       14 </v>
   <v type="int" >        4        2        2        9       14 </v>
   <v type="int" >        4        2       12       13       14 </v>
   <v type="int" >        4        1        2        2        9 </v>
   <v type="int" >        4        1        2        9       13 </v>
   <v type="int" >        4        1        8        9       13 </v>
   <v type="int" >        4        3        5        6       12 </v>
   <v type="int" >        4        2        3        5       12 </v>
   <v type="int" >        4        2        5       12       13 </v>
   <v type="int" >        4        5        6       12       16 </v>
   <v type="int" >        4        5       12       14       16 </v>
   <v type="int" >        4        5       12       13       14 </v>
   <v type="int" >        8        6        6        7       16 </v>
   <v type="int" >        4        5        6        6       16 </v>
   <v type="int" >        4        5        6       14       16 </v>
   <v type="int" >        8        6        7       16       17 </v>
   <v type="int" >       16        6       15       16       17 </v>
   <v type="int" >        8        6       14       15       16 </v>
   <v type="int" >        8        6        6        7       17 </v>
   <v type="int" >        8        6        6       15       17 </v>
   <v type="int" >        4        3        5        6       15 </v>
   <v type="int" >        4        5        6        6       15 </v>
   <v type="int" >        4        5        6       15       16 </v>
   <v type="int" >        4        3        5       10       15 </v>
   <v type="int" >        4        5       10       14       15 </v>
   <v type="int" >        4        5       14       15       16 </v>
   <v type="int" >        4        2        3        5       10 </v>
   <v type="int" >        4        2        5       10       14 </v>
   <v type="int" >        4        2        9       10       14 </v>
   <v type="int" >        4        4        6        6       11 </v>
   <v type="int" >        8        3        4        6       11 </v>
   <v type="int" >        4        3        6       11       12 </v>
   <v type="int" >        4        6        6       11       15 </v>
   <v type="int" >        8        6       11       15       16 </v>
   <v type="int" >        4        6       11       12       16 </v>
   <v type="int" >        8        6        6        7       15 </v>
   <v type="int" >        8        6        7       15       16 </v>
   <v type="int" >        8        7       15       16       17 </v>
   <v type="int" >        4        4        6        6       16 </v>
   <v type="int" >        4        4        6       11       16 </v>
   <v type="int" >        4        3        6       11       15 </v>
   <v type="int" >        4        3       10       11       15 </v>
   <v type="int" >        4        3        5        6       10 </v>
   <v type="int" >        4        3        4        6       10 </v>
   <v type="int" >        4        4        6       10       11 </v>
   <v type="int" >        4        5        6       10       14 </v>
   <v type="int" >        4        6       10       14       15 </v>
   <v type="int" >        4        6       10       11       15 </v>
   <v type="int" >        4        5        6        6       14 </v>
   <v type="int" >        4        6        6       14       15 </v>
   <v type="int" >        4        3        6       12       14 </v>
   <v type="int" >        4        6       12       14       16 </v>
   <v type="int" >        4        3        4        6       12 </v>
   <v type="int" >        4        4        6       12       16 </v>
   <v type="int" >        4        4       11       12       16 </v>
   <v type="int" >        4        2        2        5        9 </v>
   <v type="int" >        4        2        3        5        9 </v>
   <v type="int" >        4        3        5        9       10 </v>
   <v type="int" >        4        2        5        9       13 </v>
   <v type="int" >        4        5        9       13       14 </v>
   <v type="int" >        4        5        9       10       14 </v>
   <v type="int" >        4        2        3        5       13 </v>
   <v type="int" >        4        3        5       13       14 </v>
   <v type="int" >        4        3       12       13       14 </v>
   <v type="int" >        4        1        2        2        8 </v>
   <v type="int" >        4        2        2        8        9 </v>
   <v type="int" >        4        9       13       14       23 </v>
   <v type="int" >        4        8        9       13       23 </v>
   <v type="int" >        4        8        9       18       23 </v>
   <v type="int" >        4        9       14       23       24 </v>
   <v type="int" >        4        9       19       23       24 </v>
   <v type="int" >        4        9       18       19       23 </v>
   <v type="int" >        4       10       14       15       24 </v>
   <v type="int" >        4        9       10       14       24 </v>
   <v type="int" >        4        9       10       19       24 </v>
   <v type="int" >        4       10       15       24       25 </v>
   <v type="int" >        4       10       20       24       25 </v>
   <v type="int" >        4       10       19       20       24 </v>
   <v type="int" >        4       11       15       16       25 </v>
   <v type="int" >        4       10       11       15       25 </v>
   <v type="int" >        4       10       11       20       25 </v>
   <v type="int" >        4       11       16       25       26 </v>
   <v type="int" >        4       11       21       25       26 </v>
   <v type="int" >        4       11       20       21       25 </v>
   <v type="int" >        4       12       14       16       26 </v>
   <v type="int" >        4       11       12       16       26 </v>
   <v type="int" >        4       11       12       21       26 </v>
   <v type="int" >        4       12       14       24       26 </v>
   <v type="int" >        4       12       22       24       26 </v>
   <v type="int" >        4       12       21       22       26 </v>
   <v type="int" >        4        9       13       14       24 </v>
   <v type="int" >        4       12       13       14       24 </v>
   <v type="int" >        4       12       13       22       24 </v>
   <v type="int" >        4        9       13       19       24 </v>
   <v type="int" >        4       13       19       23       24 </v>
   <v type="int" >        4       13       22       23       24 </v>
   <v type="int" >        4        8        9       13       19 </v>
   <v type="int" >        4        8       13       19       23 </v>
   <v type="int" >        4        8       18       19       23 </v>
   <v type="int" >        4       12       14       16       22 </v>
   <v type="int" >        4       12       13       14       22 </v>
   <v type="int" >        4       13       14       22       23 </v>
   <v type="int" >        4       14       16       22       26 </v>
   <v type="int" >        4       14       22       24       26 </v>
   <v type="int" >        4       14       22       23       24 </v>
   <v type="int" >        8       15       16       17       26 </v>
   <v type="int" >        4       14       15       16       26 </v>
   <v type="int" >        4       14       15       24       26 </v>
   <v type="int" >        8       15       17       26       27 </v>
   <v type="int" >        8       15       25       26       27 </v>
   <v type="int" >        4       15       24       25       26 </v>
   <v type="int" >        8       15       16       17       27 </v>
   <v type="int" >        8       15       16       25       27 </v>
   <v type="int" >        8       16       25       26       27 </v>
   <v type="int" >        4       10       14       15       25 </v>
   <v type="int" >        4       14       15       16       25 </v>
   <v type="int" >        4       14       16       25       26 </v>
   <v type="int" >        4       10       14       20       25 </v>
   <v type="int" >        4       14       20       24       25 </v>
   <v type="int" >        4       14       24       25       26 </v>
   <v type="int" >        4        9       10       14       20 </v>
   <v type="int" >        4        9       14       20       24 </v>
   <v type="int" >        4        9       19       20       24 </v>
   <v type="int" >        4       11       15       16       21 </v>
   <v type="int" >        4       11       12       16       21 </v>
   <v type="int" >        4       12       16       21       22 </v>
   <v type="int" >        4       15       16       21       25 </v>
   <v type="int" >        4       16       21       25       26 </v>
   <v type="int" >        4       16       21       22       26 </v>
   <v type="int" >        8       15       16       17       25 </v>
   <v type="int" >        8       16       17       25       26 </v>
   <v type="int" >        8       17       25       26       27 </v>
   <v type="int" >        4       11       15       16       26 </v>
   <v type="int" >        4       11       15       21       26 </v>
   <v type="int" >        4       15       21       25       26 </v>
   <v type="int" >        4       10       11       15       21 </v>
   <v type="int" >        4       10       15       21       25 </v>
   <v type="int" >        4       10       20       21       25 </v>
   <v type="int" >        4       10       14       15       20 </v>
   <v type="int" >        4       10       11       15       20 </v>
   <v type="int" >        4       11       15       20       21 </v>
   <v type="int" >        4       14       15       20       24 </v>
   <v type="int" >        4       15       20       24       25 </v>
   <v type="int" >        4       15       20       21       25 </v>
   <v type="int" >        4       12       14       16       24 </v>
   <v type="int" >        4       14       15       16       24 </v>
   <v type="int" >        4       15       16       24       25 </v>
   <v type="int" >        4       12       16       22       24 </v>
   <v type="int" >        4       16       22       24       26 </v>
   <v type="int" >        4       16       24       25       26 </v>
   <v type="int" >        4       11       12       16       22 </v>
   <v type="int" >        4       11       16       22       26 </v>
   <v type="int" >        4       11       21       22       26 </v>
   <v type="int" >        4        9       13       14       19 </v>
   <v type="int" >        4        9       10       14       19 </v>
   <v type="int" >        4       10       14       19       20 </v>
   <v type="int" >        4       13       14       19       23 </v>
   <v type="int" >        4       14       19       23       24 </v>
   <v type="int" >        4       14       19       20       24 </v>
   <v type="int" >        4       12       13       14       23 </v>
   <v type="int" >        4       12       14       23       24 </v>
   <v type="int" >        4       12       22       23       24 </v>
   <v type="int" >        4        8        9       13       18 </v>
   <v type="int" >        4        9       13       18       19 </v>
   <v type="int" >        4       13       18       19       23 </v>
   <v type="int" >        4       19       19       23       24 </v>
   <v type="int" >        4       18       19       19       23 </v>
   <v type="int" >        2       18       18       19       19 </v>
   <v type="int" >        2       19       19       24       24 </v>
   <v type="int" >        4       20       24       24       25 </v>
   <v type="int" >        4       19       20       24       24 </v>
   <v type="int" >        8       19       20       23       24 </v>
   <v type="int" >        8       20       24       25       26 </v>
   <v type="int" >        8       20       22       24       26 </v>
   <v type="int" >        8       20       22       23       24 </v>
   <v type="int" >        8       21       25       26       26 </v>
   <v type="int" >        8       20       21       25       26 </v>
   <v type="int" >        8       20       21       22       26 </v>
   <v type="int" >        4       21       21       25       26 </v>
   <v type="int" >        4       21       21       22       26 </v>
   <v type="int" >        4       22       24       25       26 </v>
   <v type="int" >        4       21       22       25       26 </v>
   <v type="int" >        4       21       21       22       25 </v>
   <v type="int" >        4       22       24       24       25 </v>
   <v type="int" >        4       20       22       24       25 </v>
   <v type="int" >        4       20       21       22       25 </v>
   <v type="int" >        4       19       23       24       24 </v>
   <v type="int" >        4       22       23       24       24 </v>
   <v type="int" >        8       19       23       23       24 </v>
   <v type="int" >        8       18       19       23       23 </v>
   <v type="int" >        4       18       18       19       23 </v>
   <v type="int" >        8       25       25       26       27 </v>
   <v type="int" >        4       24       25       25       26 </v>
   <v type="int" >        2       24       24       25       25 </v>
   <v type="int" >        4       25       25       27       27 </v>
   <v type="int" >        8       25       26       27       27 </v>
   <v type="int" >       16       25       26       26       27 </v>
   <v type="int" >        8       24       25       26       26 </v>
   <v type="int" >        4       22       24       24       26 </v>
   <v type="int" >        4       24       24       25       26 </v>
   <v type="int" >        4       19       20       22       24 </v>
   <v type="int" >        4       19       22       24       24 </v>
   <v type="int" >        4       19       22       23       24 </v>
   <v type="int" >        4       21       25       25       26 </v>
   <v type="int" >        2       21       21       25       25 </v>
   <v type="int" >        4       20       21       21       25 </v>
  </varray>
  <i name="volumeweight">      0.00092593 </i>
 </kpoints>
 <parameters>
  <separator name="general" >
   <i type="string" name="SYSTEM">unknown system</i>
   <i type="logical" name="LCOMPAT"> F  </i>
  </separator>
  <separator name="electronic" >
   <i type="string" name="PREC">normal</i>
   <i name="ENMAX">    550.00000000</i>
   <i name="ENAUG">    605.39200000</i>
   <i name="EDIFF">      0.00001000</i>
   <i type="int" name="IALGO">    68</i>
   <i type="int" name="IWAVPR">    10</i>
   <i type="int" name="NBANDS">    30</i>
   <i name="NELECT">     48.00000000</i>
   <i type="int" name="TURBO">     0</i>
   <i type="int" name="IRESTART">     0</i>
   <i type="int" name="NREBOOT">     0</i>
   <i type="int" name="NMIN">     0</i>
   <i name="EREF">      0.00000000</i>
   <separator name="electronic smearing" >
    <i type="int" name="ISMEAR">    -5</i>
    <i name="SIGMA">      0.20000000</i>
    <i name="KSPACING">      0.50000000</i>
    <i type="logical" name="KGAMMA"> T  </i>
   </separator>
   <separator name="electronic projectors" >
    <i type="logical" name="LREAL"> T  </i>
    <v name="ROPT">     -0.00050000     -0.00050000</v>
    <i type="int" name="LMAXPAW">  -100</i>
    <i type="int" name="LMAXMIX">     2</i>
    <i type="logical" name="NLSPLINE"> F  </i>
   </separator>
   <separator name="electronic startup" >
    <i type="int" name="ISTART">     0</i>
    <i type="int" name="ICHARG">     2</i>
    <i type="int" name="INIWAV">     1</i>
   </separator>
   <separator name="electronic spin" >
    <i type="int" name="ISPIN">     1</i>
    <i type="logical" name="LNONCOLLINEAR"> F  </i>
    <v name="MAGMOM">      1.00000000      1.00000000      1.00000000      1.00000000      1.00000000      1.00000000      1.00000000      1.00000000      1.00000000</v>
    <i name="NUPDOWN">     -1.00000000</i>
    <i type="logical" name="LSORBIT"> F  </i>
    <v name="SAXIS">      0.00000000      0.00000000      1.00000000</v>
    <i type="logical" name="LSPIRAL"> F  </i>
    <v name="QSPIRAL">      0.00000000      0.00000000      0.00000000</v>
    <i type="logical" name="LZEROZ"> F  </i>
   </separator>
   <separator name="electronic exchange-correlation" >
    <i type="logical" name="LASPH"> F  </i>
    <i type="logical" name="LMETAGGA"> F  </i>
   </separator>
   <separator name="electronic convergence" >
    <i type="int" name="NELM">    60</i>
    <i type="int" name="NELMDL">    -5</i>
    <i type="int" name="NELMIN">     4</i>
    <i name="ENINI">    550.00000000</i>
    <separator name="electronic convergence detail" >
     <i type="logical" name="LDIAG"> T  </i>
     <i type="logical" name="LSUBROT"> F  </i>
     <i name="WEIMIN">      0.00000000</i>
     <i name="EBREAK">      0.00000008</i>
     <i name="DEPER">      0.30000000</i>
     <i type="int" name="NRMM">     4</i>
     <i name="TIME">      0.40000000</i>
    </separator>
   </separator>
   <separator name="electronic mixer" >
    <i name="AMIX">      0.40000000</i>
    <i name="BMIX">      1.00000000</i>
    <i name="AMIN">      0.10000000</i>
    <i name="AMIX_MAG">      1.60000000</i>
    <i name="BMIX_MAG">      1.00000000</i>
    <separator name="electronic mixer details" >
     <i type="int" name="IMIX">     4</i>
     <i type="logical" name="MIXFIRST"> F  </i>
     <i type="int" name="MAXMIX">   -45</i>
     <i name="WC">    100.00000000</i>
     <i type="int" name="INIMIX">     1</i>
     <i type="int" name="MIXPRE">     1</i>
     <i type="int" name="MREMOVE">     5</i>
    </separator>
   </separator>
   <separator name="electronic dipolcorrection" >
    <i type="logical" name="LDIPOL"> F  </i>
    <i type="logical" name="LMONO"> F  </i>
    <i type="int" name="IDIPOL">     0</i>
    <i name="EPSILON">      1.00000000</i>
    <v name="DIPOL">   -100.00000000   -100.00000000   -100.00000000</v>
    <i name="EFIELD">      0.00000000</i>
   </separator>
  </separator>
  <separator name="grids" >
   <i type="int" name="NGX">    28</i>
   <i type="int" name="NGY">    28</i>
   <i type="int" name="NGZ">    32</i>
   <i type="int" name="NGXF">    56</i>
   <i type="int" name="NGYF">    56</i>
   <i type="int" name="NGZF">    64</i>
   <i type="logical" name="ADDGRID"> F  </i>
  </separator>
  <separator name="ionic" >
   <i type="int" name="NSW">     0</i>
   <i type="int" name="IBRION">    -1</i>
   <i type="int" name="MDALGO">     0</i>
   <i type="int" name="ISIF">     2</i>
   <i name="PSTRESS">      0.00000000</i>
   <i name="EDIFFG">      0.00010000</i>
   <i type="int" name="NFREE">     0</i>
   <i name="POTIM">      0.50000000</i>
   <i name="SMASS">     -3.00000000</i>
   <i name="SCALEE">      1.00000000</i>
  </separator>
  <separator name="ionic md" >
   <i name="TEBEG">      0.00010000</i>
   <i name="TEEND">      0.00010000</i>
   <i type="int" name="NBLOCK">     1</i>
   <i type="int" name="KBLOCK">     1</i>
   <i type="int" name="NPACO">   256</i>
   <i name="APACO">     16.00000000</i>
  </separator>
  <separator name="symmetry" >
   <i type="int" name="ISYM">     2</i>
   <i name="SYMPREC">      0.00001000</i>
  </separator>
  <separator name="dos" >
   <i type="int" name="LORBIT">     0</i>
   <v name="RWIGS">     -1.00000000     -1.00000000</v>
   <i type="int" name="NEDOS">   301</i>
   <i name="EMIN">     10.00000000</i>
   <i name="EMAX">    -10.00000000</i>
   <i name="EFERMI">      0.00000000</i>
  </separator>
  <separator name="writing" >
   <i type="int" name="NWRITE">     2</i>
   <i type="logical" name="LWAVE"> F  </i>
   <i type="logical" name="LDOWNSAMPLE"> F  </i>
   <i type="logical" name="LCHARG"> T  </i>
   <i type="logical" name="LPARD"> F  </i>
   <i type="logical" name="LVTOT"> F  </i>
   <i type="logical" name="LVHAR"> F  </i>
   <i type="logical" name="LELF"> F  </i>
   <i type="logical" name="LOPTICS"> F  </i>
   <v name="STM">      0.00000000      0.00000000      0.00000000      0.00000000      0.00000000      0.00000000      0.00000000</v>
  </separator>
  <separator name="performance" >
   <i type="int" name="NPAR">     2</i>
   <i type="int" name="NSIM">     4</i>
   <i type="int" name="NBLK">    -1</i>
   <i type="logical" name="LPLANE"> T  </i>
   <i type="logical" name="LSCALAPACK"> T  </i>
   <i type="logical" name="LSCAAWARE"> F  </i>
   <i type="logical" name="LSCALU"> F  </i>
   <i type="logical" name="LASYNC"> F  </i>
   <i type="logical" name="LORBITALREAL"> F  </i>
  </separator>
  <separator name="miscellaneous" >
   <i type="int" name="IDIOT">     3</i>
   <i type="int" name="ISPECIAL">     0</i>
   <i type="logical" name="LMUSIC"> F  </i>
   <v name="POMASS">     28.08500000     16.00000000</v>
   <v name="DARWINR">      0.00000000      0.00000000</v>
   <v name="DARWINV">      1.00000000      1.00000000</v>
   <i type="logical" name="LCORR"> T  </i>
  </separator>
  <i type="logical" name="GGA_COMPAT"> T  </i>
  <i type="logical" name="LBERRY"> F  </i>
  <i type="int" name="ICORELEVEL">     0</i>
  <i type="logical" name="LDAU"> F  </i>
  <i type="int" name="I_CONSTRAINED_M">     0</i>
  <separator name="electronic exchange-correlation" >
   <i type="string" name="GGA">--</i>
   <i type="int" name="VOSKOWN">     0</i>
   <i type="logical" name="LHFCALC"> F  </i>
   <i type="string" name="PRECFOCK"></i>
   <i type="logical" name="LSYMGRAD"> F  </i>
   <i type="logical" name="LHFONE"> F  </i>
   <i type="logical" name="LRHFCALC"> F  </i>
   <i type="logical" name="LTHOMAS"> F  </i>
   <i type="logical" name="LMODELHF"> F  </i>
   <i name="ENCUT4O">     -1.00000000</i>
   <i type="int" name="EXXOEP">     0</i>
   <i type="int" name="FOURORBIT">     0</i>
   <i name="AEXX">      0.00000000</i>
   <i name="HFALPHA">      0.00000000</i>
   <i name="MCALPHA">      0.00000000</i>
   <i name="ALDAX">      1.00000000</i>
   <i name="AGGAX">      1.00000000</i>
   <i name="ALDAC">      1.00000000</i>
   <i name="AGGAC">      1.00000000</i>
   <i type="int" name="NKREDX">     1</i>
   <i type="int" name="NKREDY">     1</i>
   <i type="int" name="NKREDZ">     1</i>
   <i type="logical" name="SHIFTRED"> F  </i>
   <i type="logical" name="ODDONLY"> F  </i>
   <i type="logical" name="EVENONLY"> F  </i>
   <i type="int" name="LMAXFOCK">     0</i>
   <i type="int" name="NMAXFOCKAE">     0</i>
   <i type="logical" name="LFOCKAEDFT"> F  </i>
   <i name="HFSCREEN">      0.00000000</i>
   <i name="HFSCREENC">      0.00000000</i>
   <i type="int" name="NBANDSGWLOW">     0</i>
  </separator>
  <separator name="vdW DFT" >
   <i type="logical" name="LUSE_VDW"> F  </i>
   <i name="Zab_VDW">     -0.84910000</i>
   <i name="PARAM1">      0.12340000</i>
   <i name="PARAM2">      1.00000000</i>
   <i name="PARAM3">      0.00000000</i>
  </separator>
  <separator name="model GW" >
   <i type="int" name="MODEL_GW">     0</i>
   <i name="MODEL_EPS0">      7.53504921</i>
   <i name="MODEL_ALPHA">      1.00000000</i>
  </separator>
  <separator name="linear response parameters" >
   <i type="logical" name="LEPSILON"> F  </i>
   <i type="logical" name="LRPA"> F  </i>
   <i type="logical" name="LNABLA"> F  </i>
   <i type="logical" name="LVEL"> F  </i>
   <i type="int" name="KINTER">     0</i>
   <i name="CSHIFT">      0.10000000</i>
   <i name="OMEGAMAX">     -1.00000000</i>
   <i name="DEG_THRESHOLD">      0.00200000</i>
   <i name="RTIME">     -0.10000000</i>
   <i name="WPLASMAI">      0.00000000</i>
   <v name="DFIELD">      0.00000000      0.00000000      0.00000000</v>
   <v name="WPLASMA">      0.00000000      0.00000000      0.00000000      0.00000000      0.00000000      0.00000000      0.00000000      0.00000000      0.00000000</v>
  </separator>
  <separator name="orbital magnetization" >
   <i type="logical" name="NUCIND"> F  </i>
   <v name="MAGPOS">      0.00000000      0.00000000      0.00000000</v>
   <i type="logical" name="LNICSALL"> T  </i>
   <i type="logical" name="ORBITALMAG"> F  </i>
   <i type="logical" name="LMAGBLOCH"> F  </i>
   <i type="logical" name="LCHIMAG"> F  </i>
   <i type="logical" name="LGAUGE"> T  </i>
   <i type="int" name="MAGATOM">     0</i>
   <v name="MAGDIPOL">      0.00000000      0.00000000      0.00000000</v>
   <v name="AVECCONST">      0.00000000      0.00000000      0.00000000</v>
  </separator>
  <separator name="response functions" >
   <i type="logical" name="LADDER"> F  </i>
   <i type="logical" name="LRPAFORCE"> F  </i>
   <i type="logical" name="LFXC"> F  </i>
   <i type="logical" name="LHARTREE"> T  </i>
   <i type="int" name="IBSE">     0</i>
   <v type="int" name="KPOINT">    -1     0     0     0</v>
   <i type="logical" name="LTCTE"> F  </i>
   <i type="logical" name="LTETE"> F  </i>
   <i type="logical" name="LTRIPLET"> F  </i>
   <i type="logical" name="LFXCEPS"> F  </i>
   <i type="logical" name="LFXHEG"> F  </i>
   <i type="int" name="NATURALO">     2</i>
   <i type="logical" name="L2ORDER"> F  </i>
   <i type="logical" name="LMP2LT"> F  </i>
   <i type="logical" name="LUSEW"> F  </i>
   <i name="ENCUTGW">     -2.00000000</i>
   <i name="ENCUTGWSOFT">     -2.00000000</i>
   <i name="ENCUTLF">     -1.00000000</i>
   <i type="int" name="LMAXMP2">    -1</i>
   <i name="SCISSOR">      0.00000000</i>
   <i type="int" name="NOMEGA">     0</i>
   <i type="int" name="NOMEGAR">     0</i>
   <i type="int" name="NBANDSGW">    -1</i>
   <i type="int" name="NBANDSO">    -1</i>
   <i type="int" name="NBANDSV">    -1</i>
   <i type="int" name="NELM">     1</i>
   <i type="int" name="NELMHF">     1</i>
   <i type="int" name="DIM">     3</i>
   <i type="int" name="ANTIRES">     0</i>
   <i name="OMEGAMAX">    -30.00000000</i>
   <i name="OMEGAMIN">    -30.00000000</i>
   <i name="OMEGATL">   -200.00000000</i>
   <i type="int" name="OMEGAGRID">   140</i>
   <i name="CSHIFT">     -0.10000000</i>
   <i type="logical" name="SELFENERGY"> F  </i>
   <i type="logical" name="LSPECTRAL"> F  </i>
   <i type="logical" name="LSPECTRALGW"> F  </i>
   <i type="logical" name="LSINGLES"> F  </i>
   <i type="logical" name="LFERMIGW"> F  </i>
   <i type="logical" name="ODDONLYGW"> F  </i>
   <i type="logical" name="EVENONLYGW"> F  </i>
   <i type="int" name="NKREDLFX">     1</i>
   <i type="int" name="NKREDLFY">     1</i>
   <i type="int" name="NKREDLFZ">     1</i>
   <i type="int" name="MAXMEM">  2800</i>
   <i type="int" name="TELESCOPE">     0</i>
   <i type="int" name="TAUPAR">     1</i>
   <i type="int" name="OMEGAPAR">    -1</i>
   <i name="LAMBDA">      1.00000000</i>
  </separator>
  <separator name="External order field" >
   <i name="OFIELD_KAPPA">      0.00000000</i>
   <v name="OFIELD_K">      0.00000000      0.00000000      0.00000000</v>
   <i name="OFIELD_Q6_NEAR">      0.00000000</i>
   <i name="OFIELD_Q6_FAR">      0.00000000</i>
   <i name="OFIELD_A">      0.00000000</i>
  </separator>
 </parameters>
 <atominfo>
  <atoms>       9 </atoms>
  <types>       2 </types>
  <array name="atoms" >
   <dimension dim="1">ion</dimension>
   <field type="string">element</field>
   <field type="int">atomtype</field>
   <set>
    <rc><c>Si</c><c>   1</c></rc>
    <rc><c>Si</c><c>   1</c></rc>
    <rc><c>Si</c><c>   1</c></rc>
    <rc><c>O </c><c>   2</c></rc>
    <rc><c>O </c><c>   2</c></rc>
    <rc><c>O </c><c>   2</c></rc>
    <rc><c>O </c><c>   2</c></rc>
    <rc><c>O </c><c>   2</c></rc>
    <rc><c>O </c><c>   2</c></rc>
   </set>
  </array>
  <array name="atomtypes" >
   <dimension dim="1">type</dimension>
   <field type="int">atomspertype</field>
   <field type="string">element</field>
   <field>mass</field>
   <field>valence</field>
   <field type="string">pseudopotential</field>
   <set>
    <rc><c>   3</c><c>Si</c><c>     28.08500000</c><c>      4.00000000</c><c> PAW_PBE Si 05Jan2001                   </c></rc>
    <rc><c>   6</c><c>O </c><c>     16.00000000</c><c>      6.00000000</c><c> PAW_PBE O 08Apr2002                    </c></rc>
   </set>
  </array>
 </atominfo>
 <structure name="initialpos" >
  <crystal>
   <varray name="basis" >
    <v>       4.91380000       0.00000000       0.00000000 </v>
    <v>      -2.45690000       4.25547563       0.00000000 </v>
    <v>       0.00000000       0.00000000       5.40520000 </v>
   </varray>
   <i name="volume">    113.02573808 </i>
   <varray name="rec_basis" >
    <v>       0.20350849       0.11749568       0.00000000 </v>
    <v>       0.00000000       0.23499136       0.00000000 </v>
    <v>       0.00000000       0.00000000       0.18500703 </v>
   </varray>
  </crystal>
  <varray name="positions" >
   <v>       0.46980000       0.00000000       0.66666667 </v>
   <v>       0.53020000       0.53020000       0.00000000 </v>
   <v>       0.00000000       0.46980000       0.33333333 </v>
   <v>       0.41450000       0.26620000       0.78560000 </v>
   <v>       0.58550000       0.85170000       0.88106667 </v>
   <v>       0.14830000       0.73380000       0.54773333 </v>
   <v>       0.26620000       0.41450000       0.21440000 </v>
   <v>       0.85170000       0.58550000       0.11893333 </v>
   <v>       0.73380000       0.14830000       0.45226667 </v>
  </varray>
 </structure>
 <calculation>
  <scstep>
   <time name="dav">    1.03    1.05</time>
   <time name="total">    1.08    1.17</time>
   <energy>
    <i name="alphaZ">     69.72428684 </i>
    <i name="ewald">  -1887.17190222 </i>
    <i name="hartreedc">   -937.16683993 </i>
    <i name="XCdc">    142.01202013 </i>
    <i name="pawpsdc">   1574.92322788 </i>
    <i name="pawaedc">  -1533.24131965 </i>
    <i name="eentropy">      0.00000000 </i>
    <i name="bandstr">    -16.24517335 </i>
    <i name="atom">   2903.35593008 </i>
    <i name="e_fr_energy">    316.19022979 </i>
    <i name="e_wo_entrp">    316.19022979 </i>
    <i name="e_0_energy">    316.19022979 </i>
   </energy>
  </scstep>
  <scstep>
   <time name="dav">    1.24    1.25</time>
   <time name="total">    1.24    1.25</time>
   <energy>
    <i name="e_fr_energy">    -60.35115255 </i>
    <i name="e_wo_entrp">    -60.35115255 </i>
    <i name="e_0_energy">    -60.35115255 </i>
   </energy>
  </scstep>
  <scstep>
   <time name="dav">    1.15    1.16</time>
   <time name="total">    1.15    1.16</time>
   <energy>
    <i name="e_fr_energy">    -80.37456889 </i>
    <i name="e_wo_entrp">    -80.37456889 </i>
    <i name="e_0_energy">    -80.37456889 </i>
   </energy>
  </scstep>
  <scstep>
   <time name="dav">    1.15    1.16</time>
   <time name="total">    1.15    1.16</time>
   <energy>
    <i name="e_fr_energy">    -80.62299181 </i>
    <i name="e_wo_entrp">    -80.62299181 </i>
    <i name="e_0_energy">    -80.62299181 </i>
   </energy>
  </scstep>
  <scstep>
   <time name="dav">    1.11    1.11</time>
   <time name="total">    1.17    1.19</time>
   <energy>
    <i name="e_fr_energy">    -80.62752134 </i>
    <i name="e_wo_entrp">    -80.62752134 </i>
    <i name="e_0_energy">    -80.62752134 </i>
   </energy>
  </scstep>
  <scstep>
   <time name="diag">    0.22    0.25</time>
   <time name="diis">    0.61    0.62</time>
   <time name="orth">    0.03    0.03</time>
   <time name="total">    0.96    1.00</time>
   <energy>
    <i name="e_fr_energy">    -71.00530743 </i>
    <i name="e_wo_entrp">    -71.00530743 </i>
    <i name="e_0_energy">    -71.00530743 </i>
   </energy>
  </scstep>
  <scstep>
   <time name="diag">    0.22    0.22</time>
   <time name="diis">    0.68    0.68</time>
   <time name="orth">    0.03    0.03</time>
   <time name="total">    1.02    1.03</time>
   <energy>
    <i name="e_fr_energy">    -70.98611280 </i>
    <i name="e_wo_entrp">    -70.98611280 </i>
    <i name="e_0_energy">    -70.98611280 </i>
   </energy>
  </scstep>
  <scstep>
   <time name="diag">    0.22    0.22</time>
   <time name="diis">    0.66    0.66</time>
   <time name="orth">    0.03    0.03</time>
   <time name="total">    1.01    1.01</time>
   <energy>
    <i name="e_fr_energy">    -71.00475139 </i>
    <i name="e_wo_entrp">    -71.00475139 </i>
    <i name="e_0_energy">    -71.00475139 </i>
   </energy>
  </scstep>
  <scstep>
   <time name="diag">    0.22    0.22</time>
   <time name="diis">    0.68    0.68</time>
   <time name="orth">    0.03    0.03</time>
   <time name="total">    1.02    1.03</time>
   <energy>
    <i name="e_fr_energy">    -70.99768281 </i>
    <i name="e_wo_entrp">    -70.99768281 </i>
    <i name="e_0_energy">    -70.99768281 </i>
   </energy>
  </scstep>
  <scstep>
   <time name="diag">    0.22    0.22</time>
   <time name="diis">    0.68    0.68</time>
   <time name="orth">    0.03    0.03</time>
   <time name="total">    1.03    1.03</time>
   <energy>
    <i name="e_fr_energy">    -71.00068905 </i>
    <i name="e_wo_entrp">    -71.00068905 </i>
    <i name="e_0_energy">    -71.00068905 </i>
   </energy>
  </scstep>
  <scstep>
   <time name="diag">    0.22    0.22</time>
   <time name="diis">    0.68    0.68</time>
   <time name="orth">    0.03    0.03</time>
   <time name="total">    1.03    1.03</time>
   <energy>
    <i name="e_fr_energy">    -70.99939431 </i>
    <i name="e_wo_entrp">    -70.99939431 </i>
    <i name="e_0_energy">    -70.99939431 </i>
   </energy>
  </scstep>
  <scstep>
   <time name="diag">    0.22    0.22</time>
   <time name="diis">    0.68    0.69</time>
   <time name="orth">    0.03    0.03</time>
   <time name="total">    1.03    1.04</time>
   <energy>
    <i name="e_fr_energy">    -70.99934482 </i>
    <i name="e_wo_entrp">    -70.99934482 </i>
    <i name="e_0_energy">    -70.99934482 </i>
   </energy>
  </scstep>
  <scstep>
   <time name="diag">    0.22    0.22</time>
   <time name="diis">    0.50    0.50</time>
   <time name="orth">    0.03    0.03</time>
   <time name="total">    0.78    0.79</time>
   <energy>
    <i name="alphaZ">     69.72428684 </i>
    <i name="ewald">  -1887.17190222 </i>
    <i name="hartreedc">  -1071.51230587 </i>
    <i name="XCdc">    151.12957040 </i>
    <i name="pawpsdc">   2051.75396224 </i>
    <i name="pawaedc">  -2012.48678192 </i>
    <i name="eentropy">      0.00000000 </i>
    <i name="bandstr">   -275.79210619 </i>
    <i name="atom">   2903.35593008 </i>
    <i name="e_fr_energy">    -70.99934664 </i>
    <i name="e_wo_entrp">    -70.99934664 </i>
    <i name="e_0_energy">    -70.99934664 </i>
   </energy>
  </scstep>
  <structure>
   <crystal>
    <varray name="basis" >
     <v>       4.91380000       0.00000000       0.00000000 </v>
     <v>      -2.45690000       4.25547563       0.00000000 </v>
     <v>       0.00000000       0.00000000       5.40520000 </v>
    </varray>
    <i name="volume">    113.02573808 </i>
    <varray name="rec_basis" >
     <v>       0.20350849       0.11749568       0.00000000 </v>
     <v>       0.00000000       0.23499136       0.00000000 </v>
     <v>       0.00000000       0.00000000       0.18500703 </v>
    </varray>
   </crystal>
   <varray name="positions" >
    <v>       0.46980000       0.00000000       0.66666667 </v>
    <v>       0.53020000       0.53020000       0.00000000 </v>
    <v>       0.00000000       0.46980000       0.33333333 </v>
    <v>       0.41450000       0.26620000       0.78560000 </v>
    <v>       0.58550000       0.85170000       0.88106667 </v>
    <v>       0.14830000       0.73380000       0.54773333 </v>
    <v>       0.26620000       0.41450000       0.21440000 </v>
    <v>       0.85170000       0.58550000       0.11893333 </v>
    <v>       0.73380000       0.14830000       0.45226667 </v>
   </varray>
  </structure>
  <varray name="forces" >
   <v>       0.41389813      -0.00000000      -0.00000000 </v>
   <v>      -0.20694907      -0.35844630       0.00000000 </v>
   <v>      -0.20694907       0.35844630       0.00000000 </v>
   <v>      -0.52165068       0.28629294       0.06719722 </v>
   <v>       0.01288838       0.59490921      -0.06719722 </v>
   <v>      -0.52165068      -0.28629294      -0.06719722 </v>
   <v>       0.50876230      -0.30861627      -0.06719722 </v>
   <v>       0.50876230       0.30861627       0.06719722 </v>
   <v>       0.01288838      -0.59490921       0.06719722 </v>
  </varray>
  <varray name="stress" >
   <v>      85.66119516      -0.00000000       0.00000000 </v>
   <v>      -0.00000000      85.66119516       0.00000000 </v>
   <v>       0.00000000       0.00000000      71.38192160 </v>
  </varray>
  <energy>
   <i name="e_fr_energy">    -70.99934664 </i>
   <i name="e_wo_entrp">    -70.99934664 </i>
   <i name="e_0_energy">      0.00000000 </i>
  </energy>
  <time name="totalsc">   15.41   15.96</time>
  <eigenvalues>
   <array>
    <dimension dim="1">band</dimension>
    <dimension dim="2">kpoint</dimension>
    <dimension dim="3">spin</dimension>
    <field>eigene</field>
    <field>occ</field>
    <set>
     <set comment="spin 1">
      <set comment="kpoint 1">
       <r>  -18.3720    1.0000 </r>
       <r>  -16.8351    1.0000 </r>
       <r>  -16.8351    1.0000 </r>
       <r>  -16.2004    1.0000 </r>
       <r>  -16.1525    1.0000 </r>
       <r>  -16.1525    1.0000 </r>
       <r>   -7.1727    1.0000 </r>
       <r>   -7.1726    1.0000 </r>
       <r>   -4.3320    1.0000 </r>
       <r>   -4.3256    1.0000 </r>
       <r>   -4.1736    1.0000 </r>
       <r>   -4.1736    1.0000 </r>
       <r>   -1.8561    1.0000 </r>
       <r>   -1.8561    1.0000 </r>
       <r>   -1.6187    1.0000 </r>
       <r>   -1.3586    1.0000 </r>
       <r>   -0.4072    1.0000 </r>
       <r>   -0.4071    1.0000 </r>
       <r>   -0.3891    1.0000 </r>
       <r>    0.1137    1.0000 </r>
       <r>    0.1137    1.0000 </r>
       <r>    0.4231    1.0000 </r>
       <r>    0.7636    1.0000 </r>
       <r>    0.7636    1.0000 </r>
       <r>    7.1204    0.0000 </r>
       <r>   10.3983    0.0000 </r>
       <r>   10.3983    0.0000 </r>
       <r>   10.8998    0.0000 </r>
       <r>   10.8998    0.0000 </r>
       <r>   12.6154    0.0000 </r>
      </set>
      <set comment="kpoint 2">
       <r>  -18.2905    1.0000 </r>
       <r>  -16.9294    1.0000 </r>
       <r>  -16.8233    1.0000 </r>
       <r>  -16.2201    1.0000 </r>
       <r>  -16.1696    1.0000 </r>
       <r>  -16.1590    1.0000 </r>
       <r>   -7.2102    1.0000 </r>
       <r>   -6.9911    1.0000 </r>
       <r>   -4.3719    1.0000 </r>
       <r>   -4.3459    1.0000 </r>
       <r>   -4.2744    1.0000 </r>
       <r>   -4.0130    1.0000 </r>
       <r>   -1.9814    1.0000 </r>
       <r>   -1.7963    1.0000 </r>
       <r>   -1.5886    1.0000 </r>
       <r>   -1.1921    1.0000 </r>
       <r>   -0.6808    1.0000 </r>
       <r>   -0.4460    1.0000 </r>
       <r>   -0.4007    1.0000 </r>
       <r>    0.0509    1.0000 </r>
       <r>    0.1037    1.0000 </r>
       <r>    0.3208    1.0000 </r>
       <r>    0.8269    1.0000 </r>
       <r>    0.8606    1.0000 </r>
       <r>    7.5426    0.0000 </r>
       <r>   10.3847    0.0000 </r>
       <r>   10.4449    0.0000 </r>
       <r>   10.9346    0.0000 </r>
       <r>   11.0433    0.0000 </r>
       <r>   12.3861    0.0000 </r>
      </set>
      <set comment="kpoint 3">
       <r>  -18.0714    1.0000 </r>
       <r>  -17.1887    1.0000 </r>
       <r>  -16.7977    1.0000 </r>
       <r>  -16.2432    1.0000 </r>
       <r>  -16.1980    1.0000 </r>
       <r>  -16.1780    1.0000 </r>
       <r>   -7.2818    1.0000 </r>
       <r>   -6.5714    1.0000 </r>
       <r>   -4.6278    1.0000 </r>
       <r>   -4.3795    1.0000 </r>
       <r>   -4.2976    1.0000 </r>
       <r>   -3.7104    1.0000 </r>
       <r>   -2.0639    1.0000 </r>
       <r>   -1.6880    1.0000 </r>
       <r>   -1.5632    1.0000 </r>
       <r>   -1.1960    1.0000 </r>
       <r>   -0.9969    1.0000 </r>
       <r>   -0.5773    1.0000 </r>
       <r>   -0.4857    1.0000 </r>
       <r>   -0.0003    1.0000 </r>
       <r>    0.0691    1.0000 </r>
       <r>    0.2720    1.0000 </r>
       <r>    0.8549    1.0000 </r>
       <r>    1.0042    1.0000 </r>
       <r>    8.5417    0.0000 </r>
       <r>   10.4281    0.0000 </r>
       <r>   10.5550    0.0000 </r>
       <r>   11.0557    0.0000 </r>
       <r>   11.3943    0.0000 </r>
       <r>   11.7737    0.0000 </r>
      </set>
      <set comment="kpoint 4">
       <r>  -17.8820    1.0000 </r>
       <r>  -17.4032    1.0000 </r>
       <r>  -16.7841    1.0000 </r>
       <r>  -16.2492    1.0000 </r>
       <r>  -16.2107    1.0000 </r>
       <r>  -16.1896    1.0000 </r>
       <r>   -7.3162    1.0000 </r>
       <r>   -6.3092    1.0000 </r>
       <r>   -4.8161    1.0000 </r>
       <r>   -4.3568    1.0000 </r>
       <r>   -4.3259    1.0000 </r>
       <r>   -3.5446    1.0000 </r>
       <r>   -1.9919    1.0000 </r>
       <r>   -1.8253    1.0000 </r>
       <r>   -1.5944    1.0000 </r>
       <r>   -1.2131    1.0000 </r>
       <r>   -1.0050    1.0000 </r>
       <r>   -0.6606    1.0000 </r>
       <r>   -0.5931    1.0000 </r>
       <r>   -0.0032    1.0000 </r>
       <r>    0.0621    1.0000 </r>
       <r>    0.3025    1.0000 </r>
       <r>    0.8379    1.0000 </r>
       <r>    1.0619    1.0000 </r>
       <r>    9.3791    0.0000 </r>
       <r>   10.1168    0.0000 </r>
       <r>   10.8428    0.0000 </r>
       <r>   10.8437    0.0000 </r>
       <r>   11.6224    0.0000 </r>
       <r>   11.6970    0.0000 </r>
      </set>
      <set comment="kpoint 5">
       <r>  -18.1377    1.0000 </r>
       <r>  -17.1053    1.0000 </r>
       <r>  -16.8117    1.0000 </r>
       <r>  -16.2380    1.0000 </r>
       <r>  -16.1950    1.0000 </r>
       <r>  -16.1685    1.0000 </r>
       <r>   -7.2744    1.0000 </r>
       <r>   -6.6652    1.0000 </r>
       <r>   -4.6357    1.0000 </r>
       <r>   -4.3647    1.0000 </r>
       <r>   -4.2225    1.0000 </r>
       <r>   -3.8000    1.0000 </r>
       <r>   -2.0309    1.0000 </r>
       <r>   -1.7833    1.0000 </r>
       <r>   -1.4836    1.0000 </r>
       <r>   -1.0834    1.0000 </r>
       <r>   -1.0756    1.0000 </r>
       <r>   -0.5560    1.0000 </r>
       <r>   -0.3581    1.0000 </r>
       <r>   -0.1266    1.0000 </r>
       <r>    0.1865    1.0000 </r>
       <r>    0.2318    1.0000 </r>
       <r>    0.8458    1.0000 </r>
       <r>    0.9817    1.0000 </r>
       <r>    8.2504    0.0000 </r>
       <r>   10.4272    0.0000 </r>
       <r>   10.5689    0.0000 </r>
       <r>   11.0519    0.0000 </r>
       <r>   11.2217    0.0000 </r>
       <r>   11.9522    0.0000 </r>
      </set>
      <set comment="kpoint 6">
       <r>  -17.8887    1.0000 </r>
       <r>  -17.3838    1.0000 </r>
       <r>  -16.8039    1.0000 </r>
       <r>  -16.2465    1.0000 </r>
       <r>  -16.2090    1.0000 </r>
       <r>  -16.1868    1.0000 </r>
       <r>   -7.3395    1.0000 </r>
       <r>   -6.2091    1.0000 </r>
       <r>   -5.0352    1.0000 </r>
       <r>   -4.3168    1.0000 </r>
       <r>   -4.2249    1.0000 </r>
       <r>   -3.5523    1.0000 </r>
       <r>   -1.9801    1.0000 </r>
       <r>   -1.7810    1.0000 </r>
       <r>   -1.6545    1.0000 </r>
       <r>   -1.1604    1.0000 </r>
       <r>   -0.9980    1.0000 </r>
       <r>   -0.6916    1.0000 </r>
       <r>   -0.5033    1.0000 </r>
       <r>   -0.1848    1.0000 </r>
       <r>    0.0346    1.0000 </r>
       <r>    0.4269    1.0000 </r>
       <r>    0.8043    1.0000 </r>
       <r>    1.0732    1.0000 </r>
       <r>    9.2670    0.0000 </r>
       <r>   10.3664    0.0000 </r>
       <r>   10.6831    0.0000 </r>
       <r>   11.0866    0.0000 </r>
       <r>   11.4953    0.0000 </r>
       <r>   11.7070    0.0000 </r>
      </set>
      <set comment="kpoint 7">
       <r>  -17.6368    1.0000 </r>
       <r>  -17.6367    1.0000 </r>
       <r>  -16.8179    1.0000 </r>
       <r>  -16.2453    1.0000 </r>
       <r>  -16.2012    1.0000 </r>
       <r>  -16.2012    1.0000 </r>
       <r>   -7.3772    1.0000 </r>
       <r>   -5.6383    1.0000 </r>
       <r>   -5.6383    1.0000 </r>
       <r>   -4.2341    1.0000 </r>
       <r>   -4.2341    1.0000 </r>
       <r>   -3.4579    1.0000 </r>
       <r>   -1.8504    1.0000 </r>
       <r>   -1.8504    1.0000 </r>
       <r>   -1.7996    1.0000 </r>
       <r>   -0.9732    1.0000 </r>
       <r>   -0.9732    1.0000 </r>
       <r>   -0.8172    1.0000 </r>
       <r>   -0.6205    1.0000 </r>
       <r>   -0.1423    1.0000 </r>
       <r>   -0.1423    1.0000 </r>
       <r>    0.6627    1.0000 </r>
       <r>    0.6628    1.0000 </r>
       <r>    1.1045    1.0000 </r>
       <r>   10.0507    0.0000 </r>
       <r>   10.0507    0.0000 </r>
       <r>   10.5390    0.0000 </r>
       <r>   11.4712    0.0000 </r>
       <r>   11.6220    0.0000 </r>
       <r>   11.9211    0.0000 </r>
      </set>
      <set comment="kpoint 8">
       <r>  -18.2935    1.0000 </r>
       <r>  -17.2843    1.0000 </r>
       <r>  -16.4507    1.0000 </r>
       <r>  -16.1982    1.0000 </r>
       <r>  -16.1682    1.0000 </r>
       <r>  -16.1375    1.0000 </r>
       <r>   -7.8457    1.0000 </r>
       <r>   -6.3453    1.0000 </r>
       <r>   -4.4917    1.0000 </r>
       <r>   -4.4151    1.0000 </r>
       <r>   -4.3662    1.0000 </r>
       <r>   -3.8681    1.0000 </r>
       <r>   -1.9402    1.0000 </r>
       <r>   -1.6614    1.0000 </r>
       <r>   -1.5606    1.0000 </r>
       <r>   -1.2286    1.0000 </r>
       <r>   -0.6004    1.0000 </r>
       <r>   -0.4794    1.0000 </r>
       <r>   -0.4194    1.0000 </r>
       <r>   -0.2797    1.0000 </r>
       <r>    0.0819    1.0000 </r>
       <r>    0.5235    1.0000 </r>
       <r>    0.8140    1.0000 </r>
       <r>    0.9736    1.0000 </r>
       <r>    7.5147    0.0000 </r>
       <r>   10.2546    0.0000 </r>
       <r>   10.4196    0.0000 </r>
       <r>   10.5214    0.0000 </r>
       <r>   11.2228    0.0000 </r>
       <r>   12.1479    0.0000 </r>
      </set>
      <set comment="kpoint 9">
       <r>  -18.2163    1.0000 </r>
       <r>  -17.2834    1.0000 </r>
       <r>  -16.5338    1.0000 </r>
       <r>  -16.2132    1.0000 </r>
       <r>  -16.1874    1.0000 </r>
       <r>  -16.1487    1.0000 </r>
       <r>   -7.7008    1.0000 </r>
       <r>   -6.3535    1.0000 </r>
       <r>   -4.6699    1.0000 </r>
       <r>   -4.3732    1.0000 </r>
       <r>   -4.1769    1.0000 </r>
       <r>   -3.9178    1.0000 </r>
       <r>   -2.0404    1.0000 </r>
       <r>   -1.6455    1.0000 </r>
       <r>   -1.5247    1.0000 </r>
       <r>   -1.1508    1.0000 </r>
       <r>   -0.8302    1.0000 </r>
       <r>   -0.4936    1.0000 </r>
       <r>   -0.3903    1.0000 </r>
       <r>   -0.2356    1.0000 </r>
       <r>    0.1647    1.0000 </r>
       <r>    0.4196    1.0000 </r>
       <r>    0.7555    1.0000 </r>
       <r>    1.0153    1.0000 </r>
       <r>    7.8907    0.0000 </r>
       <r>   10.2686    0.0000 </r>
       <r>   10.5110    0.0000 </r>
       <r>   10.6056    0.0000 </r>
       <r>   11.2983    0.0000 </r>
       <r>   11.9877    0.0000 </r>
      </set>
      <set comment="kpoint 10">
       <r>  -18.0144    1.0000 </r>
       <r>  -17.3235    1.0000 </r>
       <r>  -16.7201    1.0000 </r>
       <r>  -16.2407    1.0000 </r>
       <r>  -16.2135    1.0000 </r>
       <r>  -16.1684    1.0000 </r>
       <r>   -7.4076    1.0000 </r>
       <r>   -6.3253    1.0000 </r>
       <r>   -4.9050    1.0000 </r>
       <r>   -4.3319    1.0000 </r>
       <r>   -4.0958    1.0000 </r>
       <r>   -3.8215    1.0000 </r>
       <r>   -2.1356    1.0000 </r>
       <r>   -1.7081    1.0000 </r>
       <r>   -1.4709    1.0000 </r>
       <r>   -1.2079    1.0000 </r>
       <r>   -0.8921    1.0000 </r>
       <r>   -0.5986    1.0000 </r>
       <r>   -0.4879    1.0000 </r>
       <r>   -0.0505    1.0000 </r>
       <r>    0.1644    1.0000 </r>
       <r>    0.2841    1.0000 </r>
       <r>    0.7981    1.0000 </r>
       <r>    0.9706    1.0000 </r>
       <r>    8.8066    0.0000 </r>
       <r>   10.3204    0.0000 </r>
       <r>   10.5727    0.0000 </r>
       <r>   11.0322    0.0000 </r>
       <r>   11.4059    0.0000 </r>
       <r>   11.6562    0.0000 </r>
      </set>
      <set comment="kpoint 11">
       <r>  -17.8596    1.0000 </r>
       <r>  -17.3921    1.0000 </r>
       <r>  -16.8306    1.0000 </r>
       <r>  -16.2495    1.0000 </r>
       <r>  -16.2152    1.0000 </r>
       <r>  -16.1808    1.0000 </r>
       <r>   -7.2686    1.0000 </r>
       <r>   -6.2700    1.0000 </r>
       <r>   -5.0406    1.0000 </r>
       <r>   -4.3534    1.0000 </r>
       <r>   -4.1013    1.0000 </r>
       <r>   -3.6679    1.0000 </r>
       <r>   -2.0439    1.0000 </r>
       <r>   -1.9428    1.0000 </r>
       <r>   -1.4674    1.0000 </r>
       <r>   -1.2580    1.0000 </r>
       <r>   -0.8417    1.0000 </r>
       <r>   -0.7218    1.0000 </r>
       <r>   -0.4173    1.0000 </r>
       <r>   -0.0693    1.0000 </r>
       <r>    0.1437    1.0000 </r>
       <r>    0.3363    1.0000 </r>
       <r>    0.7251    1.0000 </r>
       <r>    1.0012    1.0000 </r>
       <r>    9.5723    0.0000 </r>
       <r>   10.1825    0.0000 </r>
       <r>   10.6861    0.0000 </r>
       <r>   11.1523    0.0000 </r>
       <r>   11.5929    0.0000 </r>
       <r>   11.6442    0.0000 </r>
      </set>
      <set comment="kpoint 12">
       <r>  -18.0181    1.0000 </r>
       <r>  -17.3033    1.0000 </r>
       <r>  -16.7535    1.0000 </r>
       <r>  -16.2329    1.0000 </r>
       <r>  -16.1925    1.0000 </r>
       <r>  -16.1798    1.0000 </r>
       <r>   -7.4112    1.0000 </r>
       <r>   -6.3267    1.0000 </r>
       <r>   -4.9067    1.0000 </r>
       <r>   -4.3711    1.0000 </r>
       <r>   -4.0727    1.0000 </r>
       <r>   -3.7720    1.0000 </r>
       <r>   -2.0712    1.0000 </r>
       <r>   -1.6996    1.0000 </r>
       <r>   -1.5240    1.0000 </r>
       <r>   -1.3865    1.0000 </r>
       <r>   -0.9217    1.0000 </r>
       <r>   -0.4970    1.0000 </r>
       <r>   -0.3436    1.0000 </r>
       <r>   -0.0865    1.0000 </r>
       <r>    0.0665    1.0000 </r>
       <r>    0.3980    1.0000 </r>
       <r>    0.6402    1.0000 </r>
       <r>    1.0640    1.0000 </r>
       <r>    8.7729    0.0000 </r>
       <r>   10.3804    0.0000 </r>
       <r>   10.7660    0.0000 </r>
       <r>   11.1750    0.0000 </r>
       <r>   11.3572    0.0000 </r>
       <r>   11.7514    0.0000 </r>
      </set>
      <set comment="kpoint 13">
       <r>  -18.2168    1.0000 </r>
       <r>  -17.2794    1.0000 </r>
       <r>  -16.5450    1.0000 </r>
       <r>  -16.2119    1.0000 </r>
       <r>  -16.1768    1.0000 </r>
       <r>  -16.1528    1.0000 </r>
       <r>   -7.7018    1.0000 </r>
       <r>   -6.3536    1.0000 </r>
       <r>   -4.6742    1.0000 </r>
       <r>   -4.3743    1.0000 </r>
       <r>   -4.1911    1.0000 </r>
       <r>   -3.8892    1.0000 </r>
       <r>   -2.0137    1.0000 </r>
       <r>   -1.6628    1.0000 </r>
       <r>   -1.5193    1.0000 </r>
       <r>   -1.2016    1.0000 </r>
       <r>   -0.8734    1.0000 </r>
       <r>   -0.4083    1.0000 </r>
       <r>   -0.3791    1.0000 </r>
       <r>   -0.2560    1.0000 </r>
       <r>    0.1949    1.0000 </r>
       <r>    0.3810    1.0000 </r>
       <r>    0.7299    1.0000 </r>
       <r>    1.0448    1.0000 </r>
       <r>    7.8809    0.0000 </r>
       <r>   10.3073    0.0000 </r>
       <r>   10.5363    0.0000 </r>
       <r>   10.6551    0.0000 </r>
       <r>   11.2311    0.0000 </r>
       <r>   12.0390    0.0000 </r>
      </set>
      <set comment="kpoint 14">
       <r>  -18.0754    1.0000 </r>
       <r>  -17.2961    1.0000 </r>
       <r>  -16.6869    1.0000 </r>
       <r>  -16.2291    1.0000 </r>
       <r>  -16.2036    1.0000 </r>
       <r>  -16.1652    1.0000 </r>
       <r>   -7.4839    1.0000 </r>
       <r>   -6.3273    1.0000 </r>
       <r>   -4.8837    1.0000 </r>
       <r>   -4.3381    1.0000 </r>
       <r>   -4.0688    1.0000 </r>
       <r>   -3.8571    1.0000 </r>
       <r>   -2.0924    1.0000 </r>
       <r>   -1.6459    1.0000 </r>
       <r>   -1.5272    1.0000 </r>
       <r>   -1.2550    1.0000 </r>
       <r>   -0.9397    1.0000 </r>
       <r>   -0.4902    1.0000 </r>
       <r>   -0.4088    1.0000 </r>
       <r>   -0.1279    1.0000 </r>
       <r>    0.1813    1.0000 </r>
       <r>    0.3120    1.0000 </r>
       <r>    0.7159    1.0000 </r>
       <r>    1.0330    1.0000 </r>
       <r>    8.5217    0.0000 </r>
       <r>   10.3268    0.0000 </r>
       <r>   10.7367    0.0000 </r>
       <r>   10.8865    0.0000 </r>
       <r>   11.3520    0.0000 </r>
       <r>   11.7226    0.0000 </r>
      </set>
      <set comment="kpoint 15">
       <r>  -17.8613    1.0000 </r>
       <r>  -17.3903    1.0000 </r>
       <r>  -16.8274    1.0000 </r>
       <r>  -16.2482    1.0000 </r>
       <r>  -16.2238    1.0000 </r>
       <r>  -16.1774    1.0000 </r>
       <r>   -7.2818    1.0000 </r>
       <r>   -6.1862    1.0000 </r>
       <r>   -5.1821    1.0000 </r>
       <r>   -4.3161    1.0000 </r>
       <r>   -4.0687    1.0000 </r>
       <r>   -3.6862    1.0000 </r>
       <r>   -2.0883    1.0000 </r>
       <r>   -1.8106    1.0000 </r>
       <r>   -1.5846    1.0000 </r>
       <r>   -1.1281    1.0000 </r>
       <r>   -0.8953    1.0000 </r>
       <r>   -0.7030    1.0000 </r>
       <r>   -0.4167    1.0000 </r>
       <r>   -0.1339    1.0000 </r>
       <r>    0.1260    1.0000 </r>
       <r>    0.3786    1.0000 </r>
       <r>    0.7425    1.0000 </r>
       <r>    0.9753    1.0000 </r>
       <r>    9.4561    0.0000 </r>
       <r>   10.4450    0.0000 </r>
       <r>   10.6049    0.0000 </r>
       <r>   11.2075    0.0000 </r>
       <r>   11.4108    0.0000 </r>
       <r>   11.6730    0.0000 </r>
      </set>
      <set comment="kpoint 16">
       <r>  -17.8640    1.0000 </r>
       <r>  -17.3810    1.0000 </r>
       <r>  -16.8391    1.0000 </r>
       <r>  -16.2433    1.0000 </r>
       <r>  -16.2224    1.0000 </r>
       <r>  -16.1785    1.0000 </r>
       <r>   -7.2830    1.0000 </r>
       <r>   -6.1874    1.0000 </r>
       <r>   -5.1817    1.0000 </r>
       <r>   -4.3255    1.0000 </r>
       <r>   -4.0626    1.0000 </r>
       <r>   -3.6714    1.0000 </r>
       <r>   -2.0525    1.0000 </r>
       <r>   -1.8373    1.0000 </r>
       <r>   -1.6029    1.0000 </r>
       <r>   -1.1818    1.0000 </r>
       <r>   -0.9074    1.0000 </r>
       <r>   -0.6687    1.0000 </r>
       <r>   -0.3191    1.0000 </r>
       <r>   -0.1821    1.0000 </r>
       <r>    0.0764    1.0000 </r>
       <r>    0.4601    1.0000 </r>
       <r>    0.6558    1.0000 </r>
       <r>    1.0115    1.0000 </r>
       <r>    9.4457    0.0000 </r>
       <r>   10.3540    0.0000 </r>
       <r>   10.9107    0.0000 </r>
       <r>   11.0653    0.0000 </r>
       <r>   11.4714    0.0000 </r>
       <r>   11.8307    0.0000 </r>
      </set>
      <set comment="kpoint 17">
       <r>  -17.7360    1.0000 </r>
       <r>  -17.4746    1.0000 </r>
       <r>  -16.8780    1.0000 </r>
       <r>  -16.2426    1.0000 </r>
       <r>  -16.2401    1.0000 </r>
       <r>  -16.1808    1.0000 </r>
       <r>   -7.2373    1.0000 </r>
       <r>   -5.9310    1.0000 </r>
       <r>   -5.5144    1.0000 </r>
       <r>   -4.2936    1.0000 </r>
       <r>   -4.0583    1.0000 </r>
       <r>   -3.6134    1.0000 </r>
       <r>   -2.0563    1.0000 </r>
       <r>   -1.7526    1.0000 </r>
       <r>   -1.7492    1.0000 </r>
       <r>   -0.9641    1.0000 </r>
       <r>   -0.9082    1.0000 </r>
       <r>   -0.8415    1.0000 </r>
       <r>   -0.3593    1.0000 </r>
       <r>   -0.2035    1.0000 </r>
       <r>    0.0307    1.0000 </r>
       <r>    0.5781    1.0000 </r>
       <r>    0.6237    1.0000 </r>
       <r>    0.9703    1.0000 </r>
       <r>   10.0546    0.0000 </r>
       <r>   10.2553    0.0000 </r>
       <r>   10.6647    0.0000 </r>
       <r>   11.3753    0.0000 </r>
       <r>   11.4373    0.0000 </r>
       <r>   11.5267    0.0000 </r>
      </set>
      <set comment="kpoint 18">
       <r>  -18.0662    1.0000 </r>
       <r>  -17.7155    1.0000 </r>
       <r>  -16.2236    1.0000 </r>
       <r>  -16.1916    1.0000 </r>
       <r>  -16.1816    1.0000 </r>
       <r>  -16.1281    1.0000 </r>
       <r>   -8.2261    1.0000 </r>
       <r>   -5.5268    1.0000 </r>
       <r>   -4.8770    1.0000 </r>
       <r>   -4.5303    1.0000 </r>
       <r>   -4.4981    1.0000 </r>
       <r>   -3.6284    1.0000 </r>
       <r>   -1.7823    1.0000 </r>
       <r>   -1.5516    1.0000 </r>
       <r>   -1.5089    1.0000 </r>
       <r>   -1.0188    1.0000 </r>
       <r>   -0.8415    1.0000 </r>
       <r>   -0.7431    1.0000 </r>
       <r>   -0.6321    1.0000 </r>
       <r>   -0.4556    1.0000 </r>
       <r>   -0.0880    1.0000 </r>
       <r>    0.7680    1.0000 </r>
       <r>    0.9838    1.0000 </r>
       <r>    0.9848    1.0000 </r>
       <r>    8.4961    0.0000 </r>
       <r>    9.6474    0.0000 </r>
       <r>   10.2001    0.0000 </r>
       <r>   10.5270    0.0000 </r>
       <r>   11.2517    0.0000 </r>
       <r>   11.6916    0.0000 </r>
      </set>
      <set comment="kpoint 19">
       <r>  -18.0043    1.0000 </r>
       <r>  -17.6738    1.0000 </r>
       <r>  -16.3449    1.0000 </r>
       <r>  -16.2129    1.0000 </r>
       <r>  -16.1893    1.0000 </r>
       <r>  -16.1425    1.0000 </r>
       <r>   -8.0264    1.0000 </r>
       <r>   -5.6313    1.0000 </r>
       <r>   -5.0453    1.0000 </r>
       <r>   -4.4299    1.0000 </r>
       <r>   -4.3323    1.0000 </r>
       <r>   -3.6853    1.0000 </r>
       <r>   -1.9224    1.0000 </r>
       <r>   -1.6404    1.0000 </r>
       <r>   -1.4910    1.0000 </r>
       <r>   -1.1171    1.0000 </r>
       <r>   -0.9400    1.0000 </r>
       <r>   -0.5670    1.0000 </r>
       <r>   -0.5199    1.0000 </r>
       <r>   -0.3183    1.0000 </r>
       <r>   -0.0150    1.0000 </r>
       <r>    0.6564    1.0000 </r>
       <r>    0.9093    1.0000 </r>
       <r>    0.9391    1.0000 </r>
       <r>    8.7747    0.0000 </r>
       <r>    9.7839    0.0000 </r>
       <r>   10.3721    0.0000 </r>
       <r>   10.5676    0.0000 </r>
       <r>   11.3117    0.0000 </r>
       <r>   11.6715    0.0000 </r>
      </set>
      <set comment="kpoint 20">
       <r>  -17.8760    1.0000 </r>
       <r>  -17.5376    1.0000 </r>
       <r>  -16.6576    1.0000 </r>
       <r>  -16.2536    1.0000 </r>
       <r>  -16.1960    1.0000 </r>
       <r>  -16.1650    1.0000 </r>
       <r>   -7.5402    1.0000 </r>
       <r>   -5.9309    1.0000 </r>
       <r>   -5.2286    1.0000 </r>
       <r>   -4.3106    1.0000 </r>
       <r>   -4.0568    1.0000 </r>
       <r>   -3.8209    1.0000 </r>
       <r>   -2.1025    1.0000 </r>
       <r>   -1.9194    1.0000 </r>
       <r>   -1.3467    1.0000 </r>
       <r>   -1.1813    1.0000 </r>
       <r>   -0.9405    1.0000 </r>
       <r>   -0.4816    1.0000 </r>
       <r>   -0.3487    1.0000 </r>
       <r>   -0.1391    1.0000 </r>
       <r>    0.1246    1.0000 </r>
       <r>    0.4604    1.0000 </r>
       <r>    0.6859    1.0000 </r>
       <r>    0.8841    1.0000 </r>
       <r>    9.5000    0.0000 </r>
       <r>   10.0813    0.0000 </r>
       <r>   10.6256    0.0000 </r>
       <r>   10.8000    0.0000 </r>
       <r>   11.6140    0.0000 </r>
       <r>   11.7459    0.0000 </r>
      </set>
      <set comment="kpoint 21">
       <r>  -17.8198    1.0000 </r>
       <r>  -17.3734    1.0000 </r>
       <r>  -16.9056    1.0000 </r>
       <r>  -16.2708    1.0000 </r>
       <r>  -16.1981    1.0000 </r>
       <r>  -16.1748    1.0000 </r>
       <r>   -7.1855    1.0000 </r>
       <r>   -6.2042    1.0000 </r>
       <r>   -5.2798    1.0000 </r>
       <r>   -4.2819    1.0000 </r>
       <r>   -3.9174    1.0000 </r>
       <r>   -3.8843    1.0000 </r>
       <r>   -2.1121    1.0000 </r>
       <r>   -2.0831    1.0000 </r>
       <r>   -1.3580    1.0000 </r>
       <r>   -1.1022    1.0000 </r>
       <r>   -0.9487    1.0000 </r>
       <r>   -0.5098    1.0000 </r>
       <r>   -0.2070    1.0000 </r>
       <r>   -0.0613    1.0000 </r>
       <r>    0.1323    1.0000 </r>
       <r>    0.4152    1.0000 </r>
       <r>    0.4719    1.0000 </r>
       <r>    0.9125    1.0000 </r>
       <r>    9.9976    0.0000 </r>
       <r>   10.3855    0.0000 </r>
       <r>   10.7493    0.0000 </r>
       <r>   11.0604    0.0000 </r>
       <r>   11.4851    0.0000 </r>
       <r>   11.6262    0.0000 </r>
      </set>
      <set comment="kpoint 22">
       <r>  -17.8817    1.0000 </r>
       <r>  -17.5254    1.0000 </r>
       <r>  -16.6753    1.0000 </r>
       <r>  -16.2465    1.0000 </r>
       <r>  -16.1877    1.0000 </r>
       <r>  -16.1690    1.0000 </r>
       <r>   -7.5421    1.0000 </r>
       <r>   -5.9356    1.0000 </r>
       <r>   -5.2227    1.0000 </r>
       <r>   -4.3315    1.0000 </r>
       <r>   -4.0575    1.0000 </r>
       <r>   -3.7819    1.0000 </r>
       <r>   -2.0794    1.0000 </r>
       <r>   -1.9427    1.0000 </r>
       <r>   -1.3166    1.0000 </r>
       <r>   -1.2524    1.0000 </r>
       <r>   -1.0014    1.0000 </r>
       <r>   -0.4081    1.0000 </r>
       <r>   -0.2973    1.0000 </r>
       <r>   -0.1078    1.0000 </r>
       <r>    0.1360    1.0000 </r>
       <r>    0.3303    1.0000 </r>
       <r>    0.6349    1.0000 </r>
       <r>    0.9834    1.0000 </r>
       <r>    9.3821    0.0000 </r>
       <r>   10.3570    0.0000 </r>
       <r>   10.5568    0.0000 </r>
       <r>   11.0700    0.0000 </r>
       <r>   11.2111    0.0000 </r>
       <r>   11.6572    0.0000 </r>
      </set>
      <set comment="kpoint 23">
       <r>  -18.0056    1.0000 </r>
       <r>  -17.6715    1.0000 </r>
       <r>  -16.3549    1.0000 </r>
       <r>  -16.2102    1.0000 </r>
       <r>  -16.1814    1.0000 </r>
       <r>  -16.1440    1.0000 </r>
       <r>   -8.0268    1.0000 </r>
       <r>   -5.6326    1.0000 </r>
       <r>   -5.0446    1.0000 </r>
       <r>   -4.4262    1.0000 </r>
       <r>   -4.3409    1.0000 </r>
       <r>   -3.6739    1.0000 </r>
       <r>   -1.9155    1.0000 </r>
       <r>   -1.6376    1.0000 </r>
       <r>   -1.4886    1.0000 </r>
       <r>   -1.1461    1.0000 </r>
       <r>   -0.9722    1.0000 </r>
       <r>   -0.5645    1.0000 </r>
       <r>   -0.4476    1.0000 </r>
       <r>   -0.3430    1.0000 </r>
       <r>   -0.0147    1.0000 </r>
       <r>    0.6545    1.0000 </r>
       <r>    0.8193    1.0000 </r>
       <r>    1.0247    1.0000 </r>
       <r>    8.7487    0.0000 </r>
       <r>    9.8391    0.0000 </r>
       <r>   10.3311    0.0000 </r>
       <r>   10.6860    0.0000 </r>
       <r>   11.2029    0.0000 </r>
       <r>   11.6552    0.0000 </r>
      </set>
      <set comment="kpoint 24">
       <r>  -17.9090    1.0000 </r>
       <r>  -17.5811    1.0000 </r>
       <r>  -16.5713    1.0000 </r>
       <r>  -16.2378    1.0000 </r>
       <r>  -16.1917    1.0000 </r>
       <r>  -16.1660    1.0000 </r>
       <r>   -7.6777    1.0000 </r>
       <r>   -5.8226    1.0000 </r>
       <r>   -5.2250    1.0000 </r>
       <r>   -4.3092    1.0000 </r>
       <r>   -4.1487    1.0000 </r>
       <r>   -3.7665    1.0000 </r>
       <r>   -2.0584    1.0000 </r>
       <r>   -1.8378    1.0000 </r>
       <r>   -1.3848    1.0000 </r>
       <r>   -1.2419    1.0000 </r>
       <r>   -0.9331    1.0000 </r>
       <r>   -0.4943    1.0000 </r>
       <r>   -0.3528    1.0000 </r>
       <r>   -0.1435    1.0000 </r>
       <r>    0.0908    1.0000 </r>
       <r>    0.4596    1.0000 </r>
       <r>    0.7460    1.0000 </r>
       <r>    0.9110    1.0000 </r>
       <r>    9.2312    0.0000 </r>
       <r>   10.0934    0.0000 </r>
       <r>   10.5303    0.0000 </r>
       <r>   10.9154    0.0000 </r>
       <r>   11.3006    0.0000 </r>
       <r>   11.6827    0.0000 </r>
      </set>
      <set comment="kpoint 25">
       <r>  -17.8133    1.0000 </r>
       <r>  -17.3987    1.0000 </r>
       <r>  -16.8742    1.0000 </r>
       <r>  -16.2685    1.0000 </r>
       <r>  -16.2067    1.0000 </r>
       <r>  -16.1820    1.0000 </r>
       <r>   -7.1791    1.0000 </r>
       <r>   -6.1587    1.0000 </r>
       <r>   -5.3694    1.0000 </r>
       <r>   -4.2282    1.0000 </r>
       <r>   -3.9617    1.0000 </r>
       <r>   -3.8802    1.0000 </r>
       <r>   -2.1504    1.0000 </r>
       <r>   -1.9533    1.0000 </r>
       <r>   -1.4583    1.0000 </r>
       <r>   -1.0921    1.0000 </r>
       <r>   -0.8767    1.0000 </r>
       <r>   -0.6343    1.0000 </r>
       <r>   -0.1509    1.0000 </r>
       <r>   -0.0320    1.0000 </r>
       <r>    0.1954    1.0000 </r>
       <r>    0.3716    1.0000 </r>
       <r>    0.5612    1.0000 </r>
       <r>    0.7905    1.0000 </r>
       <r>    9.9216    0.0000 </r>
       <r>   10.4292    0.0000 </r>
       <r>   10.7261    0.0000 </r>
       <r>   11.1329    0.0000 </r>
       <r>   11.4485    0.0000 </r>
       <r>   11.6959    0.0000 </r>
      </set>
      <set comment="kpoint 26">
       <r>  -17.8156    1.0000 </r>
       <r>  -17.3917    1.0000 </r>
       <r>  -16.8821    1.0000 </r>
       <r>  -16.2657    1.0000 </r>
       <r>  -16.2057    1.0000 </r>
       <r>  -16.1827    1.0000 </r>
       <r>   -7.1799    1.0000 </r>
       <r>   -6.1602    1.0000 </r>
       <r>   -5.3672    1.0000 </r>
       <r>   -4.2370    1.0000 </r>
       <r>   -3.9645    1.0000 </r>
       <r>   -3.8629    1.0000 </r>
       <r>   -2.1444    1.0000 </r>
       <r>   -1.9589    1.0000 </r>
       <r>   -1.4655    1.0000 </r>
       <r>   -1.0901    1.0000 </r>
       <r>   -0.9240    1.0000 </r>
       <r>   -0.5856    1.0000 </r>
       <r>   -0.1565    1.0000 </r>
       <r>    0.0268    1.0000 </r>
       <r>    0.1898    1.0000 </r>
       <r>    0.2991    1.0000 </r>
       <r>    0.5402    1.0000 </r>
       <r>    0.8344    1.0000 </r>
       <r>    9.8646    0.0000 </r>
       <r>   10.5300    0.0000 </r>
       <r>   10.7977    0.0000 </r>
       <r>   11.1235    0.0000 </r>
       <r>   11.3106    0.0000 </r>
       <r>   11.6859    0.0000 </r>
      </set>
      <set comment="kpoint 27">
       <r>  -17.7798    1.0000 </r>
       <r>  -17.2629    1.0000 </r>
       <r>  -17.0433    1.0000 </r>
       <r>  -16.2763    1.0000 </r>
       <r>  -16.2190    1.0000 </r>
       <r>  -16.1913    1.0000 </r>
       <r>   -6.8648    1.0000 </r>
       <r>   -6.3802    1.0000 </r>
       <r>   -5.4779    1.0000 </r>
       <r>   -4.1783    1.0000 </r>
       <r>   -3.9217    1.0000 </r>
       <r>   -3.9207    1.0000 </r>
       <r>   -2.1827    1.0000 </r>
       <r>   -1.7423    1.0000 </r>
       <r>   -1.7268    1.0000 </r>
       <r>   -0.8840    1.0000 </r>
       <r>   -0.8602    1.0000 </r>
       <r>   -0.8536    1.0000 </r>
       <r>    0.0186    1.0000 </r>
       <r>    0.0351    1.0000 </r>
       <r>    0.2007    1.0000 </r>
       <r>    0.4239    1.0000 </r>
       <r>    0.4456    1.0000 </r>
       <r>    0.6524    1.0000 </r>
       <r>   10.1467    0.0000 </r>
       <r>   10.7007    0.0000 </r>
       <r>   10.9247    0.0000 </r>
       <r>   11.2099    0.0000 </r>
       <r>   11.3139    0.0000 </r>
       <r>   11.3834    0.0000 </r>
      </set>
     </set>
    </set>
   </array>
  </eigenvalues>
  <separator name="orbital magnetization" >
   <v name="MAGDIPOLOUT">      0.00000000      0.00000000      0.00000000</v>
  </separator>
  <dos>
   <i name="efermi">      1.11610829 </i>
   <total>
    <array>
     <dimension dim="1">gridpoints</dimension>
     <dimension dim="2">spin</dimension>
     <field>energy</field>
     <field>total</field>
     <field>integrated</field>
     <set>
      <set comment="spin 1">
       <r>   -20.3720     0.0000     0.0000 </r>
       <r>   -20.2553     0.0000     0.0000 </r>
       <r>   -20.1387     0.0000     0.0000 </r>
       <r>   -20.0221     0.0000     0.0000 </r>
       <r>   -19.9055     0.0000     0.0000 </r>
       <r>   -19.7888     0.0000     0.0000 </r>
       <r>   -19.6722     0.0000     0.0000 </r>
       <r>   -19.5556     0.0000     0.0000 </r>
       <r>   -19.4390     0.0000     0.0000 </r>
       <r>   -19.3223     0.0000     0.0000 </r>
       <r>   -19.2057     0.0000     0.0000 </r>
       <r>   -19.0891     0.0000     0.0000 </r>
       <r>   -18.9725     0.0000     0.0000 </r>
       <r>   -18.8558     0.0000     0.0000 </r>
       <r>   -18.7392     0.0000     0.0000 </r>
       <r>   -18.6226     0.0000     0.0000 </r>
       <r>   -18.5060     0.0000     0.0000 </r>
       <r>   -18.3893     0.0000     0.0000 </r>
       <r>   -18.2727     1.0665     0.0411 </r>
       <r>   -18.1561     1.7715     0.2022 </r>
       <r>   -18.0395     3.2420     0.4727 </r>
       <r>   -17.9228     5.0091     0.9602 </r>
       <r>   -17.8062     5.8461     1.8581 </r>
       <r>   -17.6896     1.0924     2.0111 </r>
       <r>   -17.5730     1.6931     2.1622 </r>
       <r>   -17.4563     3.9395     2.4569 </r>
       <r>   -17.3397     5.3840     3.4387 </r>
       <r>   -17.2231     1.7022     3.7812 </r>
       <r>   -17.1065     0.7670     3.9161 </r>
       <r>   -16.9898     0.7289     3.9885 </r>
       <r>   -16.8732     4.6160     4.2110 </r>
       <r>   -16.7566     5.3291     5.1753 </r>
       <r>   -16.6400     2.3358     5.5666 </r>
       <r>   -16.5233     1.3889     5.7769 </r>
       <r>   -16.4067     0.8753     5.9107 </r>
       <r>   -16.2901     0.3673     5.9887 </r>
       <r>   -16.1735    68.1083    11.0211 </r>
       <r>   -16.0568     0.0000    12.0000 </r>
       <r>   -15.9402     0.0000    12.0000 </r>
       <r>   -15.8236     0.0000    12.0000 </r>
       <r>   -15.7070     0.0000    12.0000 </r>
       <r>   -15.5904     0.0000    12.0000 </r>
       <r>   -15.4737     0.0000    12.0000 </r>
       <r>   -15.3571     0.0000    12.0000 </r>
       <r>   -15.2405     0.0000    12.0000 </r>
       <r>   -15.1239     0.0000    12.0000 </r>
       <r>   -15.0072     0.0000    12.0000 </r>
       <r>   -14.8906     0.0000    12.0000 </r>
       <r>   -14.7740     0.0000    12.0000 </r>
       <r>   -14.6574     0.0000    12.0000 </r>
       <r>   -14.5407     0.0000    12.0000 </r>
       <r>   -14.4241     0.0000    12.0000 </r>
       <r>   -14.3075     0.0000    12.0000 </r>
       <r>   -14.1909     0.0000    12.0000 </r>
       <r>   -14.0742     0.0000    12.0000 </r>
       <r>   -13.9576     0.0000    12.0000 </r>
       <r>   -13.8410     0.0000    12.0000 </r>
       <r>   -13.7244     0.0000    12.0000 </r>
       <r>   -13.6077     0.0000    12.0000 </r>
       <r>   -13.4911     0.0000    12.0000 </r>
       <r>   -13.3745     0.0000    12.0000 </r>
       <r>   -13.2579     0.0000    12.0000 </r>
       <r>   -13.1412     0.0000    12.0000 </r>
       <r>   -13.0246     0.0000    12.0000 </r>
       <r>   -12.9080     0.0000    12.0000 </r>
       <r>   -12.7914     0.0000    12.0000 </r>
       <r>   -12.6747     0.0000    12.0000 </r>
       <r>   -12.5581     0.0000    12.0000 </r>
       <r>   -12.4415     0.0000    12.0000 </r>
       <r>   -12.3249     0.0000    12.0000 </r>
       <r>   -12.2082     0.0000    12.0000 </r>
       <r>   -12.0916     0.0000    12.0000 </r>
       <r>   -11.9750     0.0000    12.0000 </r>
       <r>   -11.8584     0.0000    12.0000 </r>
       <r>   -11.7417     0.0000    12.0000 </r>
       <r>   -11.6251     0.0000    12.0000 </r>
       <r>   -11.5085     0.0000    12.0000 </r>
       <r>   -11.3919     0.0000    12.0000 </r>
       <r>   -11.2752     0.0000    12.0000 </r>
       <r>   -11.1586     0.0000    12.0000 </r>
       <r>   -11.0420     0.0000    12.0000 </r>
       <r>   -10.9254     0.0000    12.0000 </r>
       <r>   -10.8087     0.0000    12.0000 </r>
       <r>   -10.6921     0.0000    12.0000 </r>
       <r>   -10.5755     0.0000    12.0000 </r>
       <r>   -10.4589     0.0000    12.0000 </r>
       <r>   -10.3422     0.0000    12.0000 </r>
       <r>   -10.2256     0.0000    12.0000 </r>
       <r>   -10.1090     0.0000    12.0000 </r>
       <r>    -9.9924     0.0000    12.0000 </r>
       <r>    -9.8758     0.0000    12.0000 </r>
       <r>    -9.7591     0.0000    12.0000 </r>
       <r>    -9.6425     0.0000    12.0000 </r>
       <r>    -9.5259     0.0000    12.0000 </r>
       <r>    -9.4093     0.0000    12.0000 </r>
       <r>    -9.2926     0.0000    12.0000 </r>
       <r>    -9.1760     0.0000    12.0000 </r>
       <r>    -9.0594     0.0000    12.0000 </r>
       <r>    -8.9428     0.0000    12.0000 </r>
       <r>    -8.8261     0.0000    12.0000 </r>
       <r>    -8.7095     0.0000    12.0000 </r>
       <r>    -8.5929     0.0000    12.0000 </r>
       <r>    -8.4763     0.0000    12.0000 </r>
       <r>    -8.3596     0.0000    12.0000 </r>
       <r>    -8.2430     0.0000    12.0000 </r>
       <r>    -8.1264     0.2144    12.0099 </r>
       <r>    -8.0098     0.4076    12.0526 </r>
       <r>    -7.8931     0.6106    12.1117 </r>
       <r>    -7.7765     0.8273    12.1958 </r>
       <r>    -7.6599     1.0973    12.3047 </r>
       <r>    -7.5433     1.5276    12.4570 </r>
       <r>    -7.4266     2.4441    12.6758 </r>
       <r>    -7.3100     9.3485    13.2468 </r>
       <r>    -7.1934     2.0747    13.8162 </r>
       <r>    -7.0768     0.5702    13.9523 </r>
       <r>    -6.9601     0.2990    14.0012 </r>
       <r>    -6.8435     0.2270    14.0289 </r>
       <r>    -6.7269     0.3651    14.0631 </r>
       <r>    -6.6103     0.5533    14.1155 </r>
       <r>    -6.4936     0.9359    14.2001 </r>
       <r>    -6.3770     1.5632    14.3431 </r>
       <r>    -6.2604     4.1832    14.6328 </r>
       <r>    -6.1438     3.5593    15.2623 </r>
       <r>    -6.0271     1.9996    15.5796 </r>
       <r>    -5.9105     1.1575    15.7563 </r>
       <r>    -5.7939     0.7797    15.8675 </r>
       <r>    -5.6773     0.5152    15.9420 </r>
       <r>    -5.5606     0.2430    15.9972 </r>
       <r>    -5.4440     0.9163    16.0284 </r>
       <r>    -5.3274     2.8980    16.2538 </r>
       <r>    -5.2108     3.0379    16.6484 </r>
       <r>    -5.0941     2.9034    16.9875 </r>
       <r>    -4.9775     2.5093    17.3132 </r>
       <r>    -4.8609     1.7085    17.5572 </r>
       <r>    -4.7443     1.2514    17.7287 </r>
       <r>    -4.6276     0.8969    17.8537 </r>
       <r>    -4.5110     0.7191    17.9401 </r>
       <r>    -4.3944     3.9361    18.1445 </r>
       <r>    -4.2778    10.5197    19.7897 </r>
       <r>    -4.1612     5.8648    20.7458 </r>
       <r>    -4.0445     5.8381    21.4973 </r>
       <r>    -3.9279     2.3728    22.0802 </r>
       <r>    -3.8113     8.2935    22.7580 </r>
       <r>    -3.6947     4.5689    23.5394 </r>
       <r>    -3.5780     2.0131    23.9228 </r>
       <r>    -3.4614     0.0013    24.0000 </r>
       <r>    -3.3448     0.0000    24.0000 </r>
       <r>    -3.2282     0.0000    24.0000 </r>
       <r>    -3.1115     0.0000    24.0000 </r>
       <r>    -2.9949     0.0000    24.0000 </r>
       <r>    -2.8783     0.0000    24.0000 </r>
       <r>    -2.7617     0.0000    24.0000 </r>
       <r>    -2.6450     0.0000    24.0000 </r>
       <r>    -2.5284     0.0000    24.0000 </r>
       <r>    -2.4118     0.0000    24.0000 </r>
       <r>    -2.2952     0.0000    24.0000 </r>
       <r>    -2.1785     0.4888    24.0010 </r>
       <r>    -2.0619    14.9575    24.9968 </r>
       <r>    -1.9453     6.0583    26.0596 </r>
       <r>    -1.8287     6.9059    26.7177 </r>
       <r>    -1.7120     6.5843    27.6254 </r>
       <r>    -1.5954     6.0517    28.3098 </r>
       <r>    -1.4788     6.1555    29.3719 </r>
       <r>    -1.3622     2.5632    29.9605 </r>
       <r>    -1.2455     4.2198    30.1507 </r>
       <r>    -1.1289     8.2801    31.4888 </r>
       <r>    -1.0123     2.7322    31.9694 </r>
       <r>    -0.8957    16.3940    33.5135 </r>
       <r>    -0.7790     2.0930    33.9523 </r>
       <r>    -0.6624     5.9184    34.4497 </r>
       <r>    -0.5458     9.1642    35.2336 </r>
       <r>    -0.4292    10.1253    36.5099 </r>
       <r>    -0.3125     4.7964    37.5301 </r>
       <r>    -0.1959     5.4009    38.0887 </r>
       <r>    -0.0793    10.9410    39.3473 </r>
       <r>     0.0373     3.6372    40.1731 </r>
       <r>     0.1540    16.2688    41.5272 </r>
       <r>     0.2706     1.6333    42.0211 </r>
       <r>     0.3872    13.4813    43.0117 </r>
       <r>     0.5038     4.1339    43.7935 </r>
       <r>     0.6205     4.5733    44.3312 </r>
       <r>     0.7371     9.1379    45.0955 </r>
       <r>     0.8537     4.8291    46.1500 </r>
       <r>     0.9703     9.2699    46.9480 </r>
       <r>     1.0870     0.4428    47.9974 </r>
       <r>     1.2036     0.0000    48.0000 </r>
       <r>     1.3202     0.0000    48.0000 </r>
       <r>     1.4368     0.0000    48.0000 </r>
       <r>     1.5535     0.0000    48.0000 </r>
       <r>     1.6701     0.0000    48.0000 </r>
       <r>     1.7867     0.0000    48.0000 </r>
       <r>     1.9033     0.0000    48.0000 </r>
       <r>     2.0199     0.0000    48.0000 </r>
       <r>     2.1366     0.0000    48.0000 </r>
       <r>     2.2532     0.0000    48.0000 </r>
       <r>     2.3698     0.0000    48.0000 </r>
       <r>     2.4864     0.0000    48.0000 </r>
       <r>     2.6031     0.0000    48.0000 </r>
       <r>     2.7197     0.0000    48.0000 </r>
       <r>     2.8363     0.0000    48.0000 </r>
       <r>     2.9529     0.0000    48.0000 </r>
       <r>     3.0696     0.0000    48.0000 </r>
       <r>     3.1862     0.0000    48.0000 </r>
       <r>     3.3028     0.0000    48.0000 </r>
       <r>     3.4194     0.0000    48.0000 </r>
       <r>     3.5361     0.0000    48.0000 </r>
       <r>     3.6527     0.0000    48.0000 </r>
       <r>     3.7693     0.0000    48.0000 </r>
       <r>     3.8859     0.0000    48.0000 </r>
       <r>     4.0026     0.0000    48.0000 </r>
       <r>     4.1192     0.0000    48.0000 </r>
       <r>     4.2358     0.0000    48.0000 </r>
       <r>     4.3524     0.0000    48.0000 </r>
       <r>     4.4691     0.0000    48.0000 </r>
       <r>     4.5857     0.0000    48.0000 </r>
       <r>     4.7023     0.0000    48.0000 </r>
       <r>     4.8189     0.0000    48.0000 </r>
       <r>     4.9356     0.0000    48.0000 </r>
       <r>     5.0522     0.0000    48.0000 </r>
       <r>     5.1688     0.0000    48.0000 </r>
       <r>     5.2854     0.0000    48.0000 </r>
       <r>     5.4021     0.0000    48.0000 </r>
       <r>     5.5187     0.0000    48.0000 </r>
       <r>     5.6353     0.0000    48.0000 </r>
       <r>     5.7519     0.0000    48.0000 </r>
       <r>     5.8686     0.0000    48.0000 </r>
       <r>     5.9852     0.0000    48.0000 </r>
       <r>     6.1018     0.0000    48.0000 </r>
       <r>     6.2184     0.0000    48.0000 </r>
       <r>     6.3351     0.0000    48.0000 </r>
       <r>     6.4517     0.0000    48.0000 </r>
       <r>     6.5683     0.0000    48.0000 </r>
       <r>     6.6849     0.0000    48.0000 </r>
       <r>     6.8016     0.0000    48.0000 </r>
       <r>     6.9182     0.0000    48.0000 </r>
       <r>     7.0348     0.0000    48.0000 </r>
       <r>     7.1514     0.0010    48.0000 </r>
       <r>     7.2681     0.0219    48.0011 </r>
       <r>     7.3847     0.0701    48.0062 </r>
       <r>     7.5013     0.1456    48.0185 </r>
       <r>     7.6179     0.2227    48.0407 </r>
       <r>     7.7345     0.2637    48.0692 </r>
       <r>     7.8512     0.2864    48.1015 </r>
       <r>     7.9678     0.3215    48.1365 </r>
       <r>     8.0844     0.3692    48.1768 </r>
       <r>     8.2010     0.4195    48.2227 </r>
       <r>     8.3177     0.4724    48.2747 </r>
       <r>     8.4343     0.5275    48.3330 </r>
       <r>     8.5509     0.6329    48.3992 </r>
       <r>     8.6675     0.7889    48.4821 </r>
       <r>     8.7842     0.8043    48.5800 </r>
       <r>     8.9008     0.8656    48.6773 </r>
       <r>     9.0174     0.9289    48.7819 </r>
       <r>     9.1340     0.9942    48.8941 </r>
       <r>     9.2507     1.0612    49.0139 </r>
       <r>     9.3673     1.5241    49.1677 </r>
       <r>     9.4839     1.3972    49.3430 </r>
       <r>     9.6005     1.2486    49.4941 </r>
       <r>     9.7172     1.3825    49.6432 </r>
       <r>     9.8338     1.4904    49.8156 </r>
       <r>     9.9504     1.8506    50.0277 </r>
       <r>    10.0670     1.1089    50.1853 </r>
       <r>    10.1837     1.8815    50.3354 </r>
       <r>    10.3003     5.7314    50.7280 </r>
       <r>    10.4169     7.1039    51.8288 </r>
       <r>    10.5335     4.1303    52.3390 </r>
       <r>    10.6502     8.2360    53.0789 </r>
       <r>    10.7668     6.6354    53.9740 </r>
       <r>    10.8834     2.5347    54.4633 </r>
       <r>    11.0000     4.1320    54.8082 </r>
       <r>    11.1167     7.8320    55.5469 </r>
       <r>    11.2333     4.8752    56.1023 </r>
       <r>    11.3499     6.6724    56.8042 </r>
       <r>    11.4665     6.3193    57.6302 </r>
       <r>    11.5832     1.5590    58.0543 </r>
       <r>    11.6998    14.0158    58.8967 </r>
       <r>    11.8164     2.4611    59.6201 </r>
       <r>    11.9330     0.8748    59.7914 </r>
       <r>    12.0497     0.5594    59.8717 </r>
       <r>    12.1663     0.4003    59.9275 </r>
       <r>    12.2829     0.2629    59.9659 </r>
       <r>    12.3995     0.1431    59.9897 </r>
       <r>    12.5162     0.0302    59.9990 </r>
       <r>    12.6328     0.0000    60.0000 </r>
       <r>    12.7494     0.0000    60.0000 </r>
       <r>    12.8660     0.0000    60.0000 </r>
       <r>    12.9827     0.0000    60.0000 </r>
       <r>    13.0993     0.0000    60.0000 </r>
       <r>    13.2159     0.0000    60.0000 </r>
       <r>    13.3325     0.0000    60.0000 </r>
       <r>    13.4491     0.0000    60.0000 </r>
       <r>    13.5658     0.0000    60.0000 </r>
       <r>    13.6824     0.0000    60.0000 </r>
       <r>    13.7990     0.0000    60.0000 </r>
       <r>    13.9156     0.0000    60.0000 </r>
       <r>    14.0323     0.0000    60.0000 </r>
       <r>    14.1489     0.0000    60.0000 </r>
       <r>    14.2655     0.0000    60.0000 </r>
       <r>    14.3821     0.0000    60.0000 </r>
       <r>    14.4988     0.0000    60.0000 </r>
       <r>    14.6154     0.0000    60.0000 </r>
      </set>
     </set>
    </array>
   </total>
  </dos>
 </calculation>
 <structure name="finalpos" >
  <crystal>
   <varray name="basis" >
    <v>       4.91380000       0.00000000       0.00000000 </v>
    <v>      -2.45690000       4.25547563       0.00000000 </v>
    <v>       0.00000000       0.00000000       5.40520000 </v>
   </varray>
   <i name="volume">    113.02573808 </i>
   <varray name="rec_basis" >
    <v>       0.20350849       0.11749568       0.00000000 </v>
    <v>       0.00000000       0.23499136       0.00000000 </v>
    <v>       0.00000000       0.00000000       0.18500703 </v>
   </varray>
  </crystal>
  <varray name="positions" >
   <v>       0.46980000       0.00000000       0.66666667 </v>
   <v>       0.53020000       0.53020000       0.00000000 </v>
   <v>       0.00000000       0.46980000       0.33333333 </v>
   <v>       0.41450000       0.26620000       0.78560000 </v>
   <v>       0.58550000       0.85170000       0.88106667 </v>
   <v>       0.14830000       0.73380000       0.54773333 </v>
   <v>       0.26620000       0.41450000       0.21440000 </v>
   <v>       0.85170000       0.58550000       0.11893333 </v>
   <v>       0.73380000       0.14830000       0.45226667 </v>
  </varray>
 </structure>
</modeling>
