unknown system                          
           1
     4.913800    0.000000    0.000000
    -2.456900    4.255476    0.000000
     0.000000    0.000000    5.405200
   Si   O 
   3   6
Direct configuration=     1
   0.46980000  0.00000000  0.66666667
   0.53020000  0.53020000  0.00000000
   0.00000000  0.46980000  0.33333333
   0.41450000  0.26620000  0.78560000
   0.58550000  0.85170000  0.88106667
   0.14830000  0.73380000  0.54773333
   0.26620000  0.41450000  0.21440000
   0.85170000  0.58550000  0.11893333
   0.73380000  0.14830000  0.45226667
