   9   9   0   0
  0.1255842E+02  0.4913800E-09  0.4913800E-09  0.5405200E-09  0.5000000E-15
  1.000000000000000E-004
  CAR 
 unknown system                          
     14.70705746    -20.37231630  301      1.17226575      1.00000000
    -20.372  0.0000E+00  0.0000E+00
    -20.255  0.0000E+00  0.0000E+00
    -20.138  0.0000E+00  0.0000E+00
    -20.022  0.0000E+00  0.0000E+00
    -19.905  0.0000E+00  0.0000E+00
    -19.788  0.0000E+00  0.0000E+00
    -19.671  0.0000E+00  0.0000E+00
    -19.554  0.0000E+00  0.0000E+00
    -19.437  0.0000E+00  0.0000E+00
    -19.320  0.0000E+00  0.0000E+00
    -19.203  0.0000E+00  0.0000E+00
    -19.086  0.0000E+00  0.0000E+00
    -18.969  0.0000E+00  0.0000E+00
    -18.852  0.0000E+00  0.0000E+00
    -18.735  0.0000E+00  0.0000E+00
    -18.618  0.0000E+00  0.0000E+00
    -18.501  0.0000E+00  0.0000E+00
    -18.384  0.0000E+00  0.0000E+00
    -18.268  0.1112E+01  0.4708E-01
    -18.151  0.1822E+01  0.2127E+00
    -18.034  0.3411E+01  0.4932E+00
    -17.917  0.5116E+01  0.9932E+00
    -17.800  0.4711E+01  0.1894E+01
    -17.683  0.1358E+01  0.2020E+01
    -17.566  0.1750E+01  0.2175E+01
    -17.449  0.4306E+01  0.2489E+01
    -17.332  0.4759E+01  0.3480E+01
    -17.215  0.1599E+01  0.3795E+01
    -17.098  0.7305E+00  0.3923E+01
    -16.981  0.7933E+00  0.3995E+01
    -16.864  0.5115E+01  0.4256E+01
    -16.747  0.4806E+01  0.5224E+01
    -16.631  0.2233E+01  0.5589E+01
    -16.514  0.1354E+01  0.5791E+01
    -16.397  0.8271E+00  0.5920E+01
    -16.280  0.2962E+00  0.5992E+01
    -16.163  0.2986E+02  0.1153E+02
    -16.046  0.0000E+00  0.1200E+02
    -15.929  0.0000E+00  0.1200E+02
    -15.812  0.0000E+00  0.1200E+02
    -15.695  0.0000E+00  0.1200E+02
    -15.578  0.0000E+00  0.1200E+02
    -15.461  0.0000E+00  0.1200E+02
    -15.344  0.0000E+00  0.1200E+02
    -15.227  0.0000E+00  0.1200E+02
    -15.110  0.0000E+00  0.1200E+02
    -14.993  0.0000E+00  0.1200E+02
    -14.877  0.0000E+00  0.1200E+02
    -14.760  0.0000E+00  0.1200E+02
    -14.643  0.0000E+00  0.1200E+02
    -14.526  0.0000E+00  0.1200E+02
    -14.409  0.0000E+00  0.1200E+02
    -14.292  0.0000E+00  0.1200E+02
    -14.175  0.0000E+00  0.1200E+02
    -14.058  0.0000E+00  0.1200E+02
    -13.941  0.0000E+00  0.1200E+02
    -13.824  0.0000E+00  0.1200E+02
    -13.707  0.0000E+00  0.1200E+02
    -13.590  0.0000E+00  0.1200E+02
    -13.473  0.0000E+00  0.1200E+02
    -13.356  0.0000E+00  0.1200E+02
    -13.240  0.0000E+00  0.1200E+02
    -13.123  0.0000E+00  0.1200E+02
    -13.006  0.0000E+00  0.1200E+02
    -12.889  0.0000E+00  0.1200E+02
    -12.772  0.0000E+00  0.1200E+02
    -12.655  0.0000E+00  0.1200E+02
    -12.538  0.0000E+00  0.1200E+02
    -12.421  0.0000E+00  0.1200E+02
    -12.304  0.0000E+00  0.1200E+02
    -12.187  0.0000E+00  0.1200E+02
    -12.070  0.0000E+00  0.1200E+02
    -11.953  0.0000E+00  0.1200E+02
    -11.836  0.0000E+00  0.1200E+02
    -11.719  0.0000E+00  0.1200E+02
    -11.602  0.0000E+00  0.1200E+02
    -11.486  0.0000E+00  0.1200E+02
    -11.369  0.0000E+00  0.1200E+02
    -11.252  0.0000E+00  0.1200E+02
    -11.135  0.0000E+00  0.1200E+02
    -11.018  0.0000E+00  0.1200E+02
    -10.901  0.0000E+00  0.1200E+02
    -10.784  0.0000E+00  0.1200E+02
    -10.667  0.0000E+00  0.1200E+02
    -10.550  0.0000E+00  0.1200E+02
    -10.433  0.0000E+00  0.1200E+02
    -10.316  0.0000E+00  0.1200E+02
    -10.199  0.0000E+00  0.1200E+02
    -10.082  0.0000E+00  0.1200E+02
     -9.965  0.0000E+00  0.1200E+02
     -9.849  0.0000E+00  0.1200E+02
     -9.732  0.0000E+00  0.1200E+02
     -9.615  0.0000E+00  0.1200E+02
     -9.498  0.0000E+00  0.1200E+02
     -9.381  0.0000E+00  0.1200E+02
     -9.264  0.0000E+00  0.1200E+02
     -9.147  0.0000E+00  0.1200E+02
     -9.030  0.0000E+00  0.1200E+02
     -8.913  0.0000E+00  0.1200E+02
     -8.796  0.0000E+00  0.1200E+02
     -8.679  0.0000E+00  0.1200E+02
     -8.562  0.0000E+00  0.1200E+02
     -8.445  0.0000E+00  0.1200E+02
     -8.328  0.0000E+00  0.1200E+02
     -8.211  0.3234E-01  0.1200E+02
     -8.095  0.3141E+00  0.1202E+02
     -7.978  0.4668E+00  0.1207E+02
     -7.861  0.6801E+00  0.1214E+02
     -7.744  0.8839E+00  0.1223E+02
     -7.627  0.1225E+01  0.1235E+02
     -7.510  0.1707E+01  0.1252E+02
     -7.393  0.3205E+01  0.1278E+02
     -7.276  0.4747E+01  0.1357E+02
     -7.159  0.8770E+00  0.1390E+02
     -7.042  0.4582E+00  0.1397E+02
     -6.925  0.2455E+00  0.1401E+02
     -6.808  0.2702E+00  0.1404E+02
     -6.691  0.4187E+00  0.1408E+02
     -6.574  0.6584E+00  0.1414E+02
     -6.457  0.1123E+01  0.1424E+02
     -6.341  0.1896E+01  0.1441E+02
     -6.224  0.5622E+01  0.1483E+02
     -6.107  0.2928E+01  0.1540E+02
     -5.990  0.1615E+01  0.1565E+02
     -5.873  0.9985E+00  0.1580E+02
     -5.756  0.6728E+00  0.1590E+02
     -5.639  0.4432E+00  0.1596E+02
     -5.522  0.7130E-01  0.1600E+02
     -5.405  0.1693E+01  0.1609E+02
     -5.288  0.3621E+01  0.1640E+02
     -5.171  0.2882E+01  0.1678E+02
     -5.054  0.2890E+01  0.1712E+02
     -4.937  0.2197E+01  0.1742E+02
     -4.820  0.1520E+01  0.1763E+02
     -4.704  0.1109E+01  0.1778E+02
     -4.587  0.7637E+00  0.1789E+02
     -4.470  0.1287E+01  0.1798E+02
     -4.353  0.2167E+02  0.1870E+02
     -4.236  0.8613E+01  0.2023E+02
     -4.119  0.6106E+01  0.2102E+02
     -4.002  0.4726E+01  0.2175E+02
     -3.885  0.7677E+01  0.2222E+02
     -3.768  0.7247E+01  0.2314E+02
     -3.651  0.3517E+01  0.2374E+02
     -3.534  0.5408E+00  0.2399E+02
     -3.417  0.0000E+00  0.2400E+02
     -3.300  0.0000E+00  0.2400E+02
     -3.183  0.0000E+00  0.2400E+02
     -3.066  0.0000E+00  0.2400E+02
     -2.950  0.0000E+00  0.2400E+02
     -2.833  0.0000E+00  0.2400E+02
     -2.716  0.0000E+00  0.2400E+02
     -2.599  0.0000E+00  0.2400E+02
     -2.482  0.0000E+00  0.2400E+02
     -2.365  0.0000E+00  0.2400E+02
     -2.248  0.0000E+00  0.2400E+02
     -2.131  0.8112E+01  0.2420E+02
     -2.014  0.9766E+01  0.2562E+02
     -1.897  0.5488E+01  0.2636E+02
     -1.780  0.8168E+01  0.2718E+02
     -1.663  0.6171E+01  0.2795E+02
     -1.546  0.1008E+02  0.2873E+02
     -1.429  0.5480E+01  0.2969E+02
     -1.313  0.9440E+00  0.3002E+02
     -1.196  0.1612E+02  0.3071E+02
     -1.079  0.2841E+01  0.3181E+02
     -0.962  0.1276E+02  0.3235E+02
     -0.845  0.1258E+01  0.3386E+02
     -0.728  0.3188E+01  0.3410E+02
     -0.611  0.6322E+01  0.3478E+02
     -0.494  0.1210E+02  0.3585E+02
     -0.377  0.8664E+01  0.3717E+02
     -0.260  0.4782E+01  0.3780E+02
     -0.143  0.1174E+02  0.3867E+02
     -0.026  0.6573E+01  0.3987E+02
      0.091  0.1113E+02  0.4063E+02
      0.208  0.0000E+00  0.4200E+02
      0.325  0.8996E+01  0.4230E+02
      0.441  0.4960E+01  0.4357E+02
      0.558  0.4251E+01  0.4408E+02
      0.675  0.6584E+01  0.4467E+02
      0.792  0.9984E+01  0.4569E+02
      0.909  0.6989E+01  0.4649E+02
      1.026  0.1127E+02  0.4773E+02
      1.143  0.0000E+00  0.4800E+02
      1.260  0.0000E+00  0.4800E+02
      1.377  0.0000E+00  0.4800E+02
      1.494  0.0000E+00  0.4800E+02
      1.611  0.0000E+00  0.4800E+02
      1.728  0.0000E+00  0.4800E+02
      1.845  0.0000E+00  0.4800E+02
      1.962  0.0000E+00  0.4800E+02
      2.078  0.0000E+00  0.4800E+02
      2.195  0.0000E+00  0.4800E+02
      2.312  0.0000E+00  0.4800E+02
      2.429  0.0000E+00  0.4800E+02
      2.546  0.0000E+00  0.4800E+02
      2.663  0.0000E+00  0.4800E+02
      2.780  0.0000E+00  0.4800E+02
      2.897  0.0000E+00  0.4800E+02
      3.014  0.0000E+00  0.4800E+02
      3.131  0.0000E+00  0.4800E+02
      3.248  0.0000E+00  0.4800E+02
      3.365  0.0000E+00  0.4800E+02
      3.482  0.0000E+00  0.4800E+02
      3.599  0.0000E+00  0.4800E+02
      3.716  0.0000E+00  0.4800E+02
      3.832  0.0000E+00  0.4800E+02
      3.949  0.0000E+00  0.4800E+02
      4.066  0.0000E+00  0.4800E+02
      4.183  0.0000E+00  0.4800E+02
      4.300  0.0000E+00  0.4800E+02
      4.417  0.0000E+00  0.4800E+02
      4.534  0.0000E+00  0.4800E+02
      4.651  0.0000E+00  0.4800E+02
      4.768  0.0000E+00  0.4800E+02
      4.885  0.0000E+00  0.4800E+02
      5.002  0.0000E+00  0.4800E+02
      5.119  0.0000E+00  0.4800E+02
      5.236  0.0000E+00  0.4800E+02
      5.353  0.0000E+00  0.4800E+02
      5.469  0.0000E+00  0.4800E+02
      5.586  0.0000E+00  0.4800E+02
      5.703  0.0000E+00  0.4800E+02
      5.820  0.0000E+00  0.4800E+02
      5.937  0.0000E+00  0.4800E+02
      6.054  0.0000E+00  0.4800E+02
      6.171  0.0000E+00  0.4800E+02
      6.288  0.0000E+00  0.4800E+02
      6.405  0.0000E+00  0.4800E+02
      6.522  0.0000E+00  0.4800E+02
      6.639  0.0000E+00  0.4800E+02
      6.756  0.0000E+00  0.4800E+02
      6.873  0.0000E+00  0.4800E+02
      6.990  0.0000E+00  0.4800E+02
      7.107  0.0000E+00  0.4800E+02
      7.223  0.1077E-01  0.4800E+02
      7.340  0.4884E-01  0.4800E+02
      7.457  0.1144E+00  0.4801E+02
      7.574  0.2030E+00  0.4803E+02
      7.691  0.2509E+00  0.4806E+02
      7.808  0.2804E+00  0.4809E+02
      7.925  0.3052E+00  0.4812E+02
      8.042  0.3520E+00  0.4816E+02
      8.159  0.4015E+00  0.4821E+02
      8.276  0.4537E+00  0.4826E+02
      8.393  0.5082E+00  0.4831E+02
      8.510  0.5782E+00  0.4837E+02
      8.627  0.7361E+00  0.4845E+02
      8.744  0.8903E+00  0.4855E+02
      8.860  0.8447E+00  0.4864E+02
      8.977  0.9074E+00  0.4875E+02
      9.094  0.9721E+00  0.4886E+02
      9.211  0.1039E+01  0.4897E+02
      9.328  0.1439E+01  0.4911E+02
      9.445  0.1516E+01  0.4929E+02
      9.562  0.1262E+01  0.4945E+02
      9.679  0.1301E+01  0.4959E+02
      9.796  0.1521E+01  0.4976E+02
      9.913  0.2114E+01  0.4995E+02
     10.030  0.1204E+01  0.5014E+02
     10.147  0.1349E+01  0.5028E+02
     10.264  0.3825E+01  0.5056E+02
     10.381  0.1183E+02  0.5149E+02
     10.498  0.3956E+01  0.5220E+02
     10.614  0.7303E+01  0.5280E+02
     10.731  0.7416E+01  0.5372E+02
     10.848  0.3270E+01  0.5436E+02
     10.965  0.3299E+01  0.5468E+02
     11.082  0.7769E+01  0.5528E+02
     11.199  0.2707E+01  0.5599E+02
     11.316  0.6122E+01  0.5659E+02
     11.433  0.6953E+01  0.5735E+02
     11.550  0.2311E+01  0.5800E+02
     11.667  0.1541E+02  0.5831E+02
     11.784  0.3588E+01  0.5955E+02
     11.901  0.1054E+01  0.5977E+02
     12.018  0.6083E+00  0.5986E+02
     12.135  0.4328E+00  0.5992E+02
     12.252  0.2704E+00  0.5996E+02
     12.368  0.1352E+00  0.5998E+02
     12.485  0.5797E-01  0.6000E+02
     12.602  0.1294E-01  0.6000E+02
     12.719  0.0000E+00  0.6000E+02
     12.836  0.0000E+00  0.6000E+02
     12.953  0.0000E+00  0.6000E+02
     13.070  0.0000E+00  0.6000E+02
     13.187  0.0000E+00  0.6000E+02
     13.304  0.0000E+00  0.6000E+02
     13.421  0.0000E+00  0.6000E+02
     13.538  0.0000E+00  0.6000E+02
     13.655  0.0000E+00  0.6000E+02
     13.772  0.0000E+00  0.6000E+02
     13.889  0.0000E+00  0.6000E+02
     14.005  0.0000E+00  0.6000E+02
     14.122  0.0000E+00  0.6000E+02
     14.239  0.0000E+00  0.6000E+02
     14.356  0.0000E+00  0.6000E+02
     14.473  0.0000E+00  0.6000E+02
     14.590  0.0000E+00  0.6000E+02
     14.707  0.0000E+00  0.6000E+02
