Starting job 12684652 on c5-[45,49-50] on saga at Wed Sep 18 14:38:07 CEST 2024

The following modules were not unloaded:
  (Use "module --force purge" to unload all):

  1) StdEnv
 running on    4 total cores
 distrk:  each k-point on    4 cores,    1 groups
 distr:  one band on    2 cores,    2 groups
 using from now: INCAR     
 vasp.5.4.4.18Apr17-6-g9f103f2a35 (build Jul 15 2019 14:02:39) complex          
  
 POSCAR found type information on POSCAR  Si O 
 POSCAR found :  2 types and       9 ions
 scaLAPACK will be used
 LDA part: xc-table for Pade appr. of Perdew
 POSCAR, INCAR and KPOINTS ok, starting setup
 FFT: planning ...
 WAVECAR not read
 entering main loop
       N       E                     dE             d eps       ncg     rms          rms(c)
DAV:   1     0.372051045018E+03    0.37205E+03   -0.31242E+04  1620   0.198E+03
DAV:   2    -0.564045143424E+02   -0.42846E+03   -0.41820E+03  2164   0.375E+02
DAV:   3    -0.803444246753E+02   -0.23940E+02   -0.23856E+02  1932   0.969E+01
DAV:   4    -0.806597334628E+02   -0.31531E+00   -0.31478E+00  1944   0.120E+01
DAV:   5    -0.806652583664E+02   -0.55249E-02   -0.55233E-02  1884   0.159E+00    0.188E+01
RMM:   6    -0.710695105281E+02    0.95957E+01   -0.40373E+01  1711   0.330E+01    0.513E+00
RMM:   7    -0.710411903473E+02    0.28320E-01   -0.15021E+00  1902   0.557E+00    0.339E+00
RMM:   8    -0.710571913644E+02   -0.16001E-01   -0.25428E-01  1830   0.413E+00    0.624E-01
RMM:   9    -0.710502096952E+02    0.69817E-02   -0.56144E-02  1938   0.122E+00    0.133E-01
RMM:  10    -0.710531716977E+02   -0.29620E-02   -0.13540E-02  1896   0.613E-01    0.226E-01
RMM:  11    -0.710519085761E+02    0.12631E-02   -0.25264E-03  1934   0.285E-01    0.620E-02
RMM:  12    -0.710518652422E+02    0.43334E-04   -0.76791E-04  1924   0.144E-01    0.784E-03
RMM:  13    -0.710518663805E+02   -0.11383E-05   -0.19448E-05  1297   0.261E-02
   1 F= -.71051866E+02 E0= -.71051866E+02  d E =0.000000E+00

Job 12684652 consumed 0.0 billing hours from project nn9988k.

Submitted 2024-09-18T14:38:05; waited 2.0 seconds in the queue after becoming eligible to run.

Requested wallclock time: 10.0 minutes
Elapsed wallclock time:   38.0 seconds

Task and CPU statistics:
ID              CPUs  Tasks  CPU util                Start  Elapsed  Exit status
12684652           4            0.0 %  2024-09-18T14:38:07   38.0 s  0
12684652.batch     1      1     7.1 %  2024-09-18T14:38:07   38.0 s  0
12684652.vasp      4      4    95.7 %  2024-09-18T14:38:12   33.0 s  0

Used CPU time:   2.2 CPU minutes
Unused CPU time: 22.9 CPU seconds

Memory statistics, in GiB:
ID               Alloc   Usage
12684652          14.8        
12684652.batch     3.7     0.0
12684652.vasp     14.8     0.7

Job 12684652 completed at Wed Sep 18 14:38:45 CEST 2024
