<?xml version="1.0" encoding="ISO-8859-1"?>
<modeling>
 <generator>
  <i name="program" type="string">vasp </i>
  <i name="version" type="string">5.4.4.18Apr17-6-g9f103f2a35  </i>
  <i name="subversion" type="string">(build Jul 15 2019 14:02:39) complex            parallel </i>
  <i name="platform" type="string">TEST </i>
  <i name="date" type="string">2024 09 18 </i>
  <i name="time" type="string">14:38:15 </i>
 </generator>
 <incar>
  <i type="string" name="PREC">normal    ! low/normal/accurate</i>
  <i type="string" name="ALGO"> Fast      ! Algorithm for electronic re</i>
  <i type="int" name="ISPIN">     1</i>
  <i type="int" name="NELMIN">     4</i>
  <i name="EDIFF">      0.00001000</i>
  <i type="int" name="NSW">     0</i>
  <i name="ENCUT">    750.00000000</i>
  <i type="string" name="LREAL"> Auto      ! Projection in reciprocal sp</i>
  <i type="int" name="ISMEAR">    -5</i>
  <i name="SIGMA">      0.20000000</i>
  <i type="logical" name="LWAVE"> F  </i>
  <v type="int" name="KPOINT_BSE">    -1     0     0     0</v>
 </incar>
 <structure name="primitive_cell" >
  <crystal>
   <varray name="basis" >
    <v>       4.91380000       0.00000000       0.00000000 </v>
    <v>      -2.45690000       4.25547563       0.00000000 </v>
    <v>       0.00000000       0.00000000       5.40520000 </v>
   </varray>
   <i name="volume">    113.02573808 </i>
   <varray name="rec_basis" >
    <v>       0.20350849       0.11749568       0.00000000 </v>
    <v>       0.00000000       0.23499136       0.00000000 </v>
    <v>       0.00000000       0.00000000       0.18500703 </v>
   </varray>
  </crystal>
  <varray name="positions" >
   <v>       0.46980000       0.00000000      -0.33333333 </v>
   <v>       0.14830000      -0.26620000      -0.45226667 </v>
   <v>       0.41450000       0.26620000      -0.21440000 </v>
   <v>      -0.26620000       0.14830000       0.45226667 </v>
   <v>      -0.41450000      -0.14830000      -0.11893333 </v>
   <v>       0.00000000       0.46980000       0.33333333 </v>
   <v>      -0.46980000      -0.46980000       0.00000000 </v>
   <v>       0.26620000       0.41450000       0.21440000 </v>
   <v>      -0.14830000      -0.41450000       0.11893333 </v>
  </varray>
 </structure>
 <varray name="primitive_index" >
  <v type="int" >        1 </v>
  <v type="int" >        6 </v>
  <v type="int" >        4 </v>
  <v type="int" >        9 </v>
  <v type="int" >        5 </v>
  <v type="int" >        3 </v>
  <v type="int" >        2 </v>
  <v type="int" >        7 </v>
  <v type="int" >        8 </v>
 </varray>
 <kpoints>
  <generation param="Gamma">
   <v type="int" name="divisions">       6        6        5 </v>
   <v name="usershift">      0.00000000       0.00000000       0.00000000 </v>
   <v name="genvec1">      0.16666667      -0.00000000       0.00000000 </v>
   <v name="genvec2">      0.00000000       0.16666667       0.00000000 </v>
   <v name="genvec3">      0.00000000       0.00000000       0.20000000 </v>
   <v name="shift">      0.00000000       0.00000000       0.00000000 </v>
  </generation>
  <varray name="kpointlist" >
   <v>       0.00000000       0.00000000       0.00000000 </v>
   <v>       0.16666667       0.00000000       0.00000000 </v>
   <v>       0.33333333       0.00000000       0.00000000 </v>
   <v>       0.50000000       0.00000000       0.00000000 </v>
   <v>       0.16666667       0.16666667       0.00000000 </v>
   <v>       0.33333333       0.16666667       0.00000000 </v>
   <v>       0.33333333       0.33333333       0.00000000 </v>
   <v>       0.00000000       0.00000000       0.20000000 </v>
   <v>       0.16666667       0.00000000       0.20000000 </v>
   <v>       0.33333333       0.00000000       0.20000000 </v>
   <v>       0.50000000       0.00000000       0.20000000 </v>
   <v>      -0.33333333       0.00000000       0.20000000 </v>
   <v>      -0.16666667       0.00000000       0.20000000 </v>
   <v>       0.16666667       0.16666667       0.20000000 </v>
   <v>       0.33333333       0.16666667       0.20000000 </v>
   <v>       0.50000000       0.16666667       0.20000000 </v>
   <v>       0.33333333       0.33333333       0.20000000 </v>
   <v>       0.00000000       0.00000000       0.40000000 </v>
   <v>       0.16666667       0.00000000       0.40000000 </v>
   <v>       0.33333333       0.00000000       0.40000000 </v>
   <v>       0.50000000       0.00000000       0.40000000 </v>
   <v>      -0.33333333       0.00000000       0.40000000 </v>
   <v>      -0.16666667       0.00000000       0.40000000 </v>
   <v>       0.16666667       0.16666667       0.40000000 </v>
   <v>       0.33333333       0.16666667       0.40000000 </v>
   <v>       0.50000000       0.16666667       0.40000000 </v>
   <v>       0.33333333       0.33333333       0.40000000 </v>
  </varray>
  <varray name="weights" >
   <v>       0.00555556 </v>
   <v>       0.03333333 </v>
   <v>       0.03333333 </v>
   <v>       0.01666667 </v>
   <v>       0.03333333 </v>
   <v>       0.06666667 </v>
   <v>       0.01111111 </v>
   <v>       0.01111111 </v>
   <v>       0.03333333 </v>
   <v>       0.03333333 </v>
   <v>       0.03333333 </v>
   <v>       0.03333333 </v>
   <v>       0.03333333 </v>
   <v>       0.06666667 </v>
   <v>       0.06666667 </v>
   <v>       0.06666667 </v>
   <v>       0.02222222 </v>
   <v>       0.01111111 </v>
   <v>       0.03333333 </v>
   <v>       0.03333333 </v>
   <v>       0.03333333 </v>
   <v>       0.03333333 </v>
   <v>       0.03333333 </v>
   <v>       0.06666667 </v>
   <v>       0.06666667 </v>
   <v>       0.06666667 </v>
   <v>       0.02222222 </v>
  </varray>
  <varray name="tetrahedronlist"  type="int" >
   <v type="int" >        4        2        2        5       13 </v>
   <v type="int" >        4        1        2        2       13 </v>
   <v type="int" >        4        1        2        8       13 </v>
   <v type="int" >        4        2        5       13       14 </v>
   <v type="int" >        8        2        9       13       14 </v>
   <v type="int" >        8        2        8        9       13 </v>
   <v type="int" >        8        3        5        6       14 </v>
   <v type="int" >        8        2        3        5       14 </v>
   <v type="int" >        4        2        3        9       14 </v>
   <v type="int" >        4        3        6       14       15 </v>
   <v type="int" >        4        3       10       14       15 </v>
   <v type="int" >        4        3        9       10       14 </v>
   <v type="int" >        4        4        6        6       15 </v>
   <v type="int" >        4        3        4        6       15 </v>
   <v type="int" >        4        3        4       10       15 </v>
   <v type="int" >        4        4        6       15       16 </v>
   <v type="int" >        4        4       11       15       16 </v>
   <v type="int" >        4        4       10       11       15 </v>
   <v type="int" >        4        3        5        6       16 </v>
   <v type="int" >        4        3        4        6       16 </v>
   <v type="int" >        4        3        4       11       16 </v>
   <v type="int" >        4        3        5       14       16 </v>
   <v type="int" >        4        3       12       14       16 </v>
   <v type="int" >        4        3       11       12       16 </v>
   <v type="int" >        4        2        2        5       14 </v>
   <v type="int" >        4        2        3       12       14 </v>
   <v type="int" >        4        2        2        9       14 </v>
   <v type="int" >        4        2       12       13       14 </v>
   <v type="int" >        4        1        2        2        9 </v>
   <v type="int" >        4        1        2        9       13 </v>
   <v type="int" >        4        1        8        9       13 </v>
   <v type="int" >        4        3        5        6       12 </v>
   <v type="int" >        4        2        3        5       12 </v>
   <v type="int" >        4        2        5       12       13 </v>
   <v type="int" >        4        5        6       12       16 </v>
   <v type="int" >        4        5       12       14       16 </v>
   <v type="int" >        4        5       12       13       14 </v>
   <v type="int" >        8        6        6        7       16 </v>
   <v type="int" >        4        5        6        6       16 </v>
   <v type="int" >        4        5        6       14       16 </v>
   <v type="int" >        8        6        7       16       17 </v>
   <v type="int" >       16        6       15       16       17 </v>
   <v type="int" >        8        6       14       15       16 </v>
   <v type="int" >        8        6        6        7       17 </v>
   <v type="int" >        8        6        6       15       17 </v>
   <v type="int" >        4        3        5        6       15 </v>
   <v type="int" >        4        5        6        6       15 </v>
   <v type="int" >        4        5        6       15       16 </v>
   <v type="int" >        4        3        5       10       15 </v>
   <v type="int" >        4        5       10       14       15 </v>
   <v type="int" >        4        5       14       15       16 </v>
   <v type="int" >        4        2        3        5       10 </v>
   <v type="int" >        4        2        5       10       14 </v>
   <v type="int" >        4        2        9       10       14 </v>
   <v type="int" >        4        4        6        6       11 </v>
   <v type="int" >        8        3        4        6       11 </v>
   <v type="int" >        4        3        6       11       12 </v>
   <v type="int" >        4        6        6       11       15 </v>
   <v type="int" >        8        6       11       15       16 </v>
   <v type="int" >        4        6       11       12       16 </v>
   <v type="int" >        8        6        6        7       15 </v>
   <v type="int" >        8        6        7       15       16 </v>
   <v type="int" >        8        7       15       16       17 </v>
   <v type="int" >        4        4        6        6       16 </v>
   <v type="int" >        4        4        6       11       16 </v>
   <v type="int" >        4        3        6       11       15 </v>
   <v type="int" >        4        3       10       11       15 </v>
   <v type="int" >        4        3        5        6       10 </v>
   <v type="int" >        4        3        4        6       10 </v>
   <v type="int" >        4        4        6       10       11 </v>
   <v type="int" >        4        5        6       10       14 </v>
   <v type="int" >        4        6       10       14       15 </v>
   <v type="int" >        4        6       10       11       15 </v>
   <v type="int" >        4        5        6        6       14 </v>
   <v type="int" >        4        6        6       14       15 </v>
   <v type="int" >        4        3        6       12       14 </v>
   <v type="int" >        4        6       12       14       16 </v>
   <v type="int" >        4        3        4        6       12 </v>
   <v type="int" >        4        4        6       12       16 </v>
   <v type="int" >        4        4       11       12       16 </v>
   <v type="int" >        4        2        2        5        9 </v>
   <v type="int" >        4        2        3        5        9 </v>
   <v type="int" >        4        3        5        9       10 </v>
   <v type="int" >        4        2        5        9       13 </v>
   <v type="int" >        4        5        9       13       14 </v>
   <v type="int" >        4        5        9       10       14 </v>
   <v type="int" >        4        2        3        5       13 </v>
   <v type="int" >        4        3        5       13       14 </v>
   <v type="int" >        4        3       12       13       14 </v>
   <v type="int" >        4        1        2        2        8 </v>
   <v type="int" >        4        2        2        8        9 </v>
   <v type="int" >        4        9       13       14       23 </v>
   <v type="int" >        4        8        9       13       23 </v>
   <v type="int" >        4        8        9       18       23 </v>
   <v type="int" >        4        9       14       23       24 </v>
   <v type="int" >        4        9       19       23       24 </v>
   <v type="int" >        4        9       18       19       23 </v>
   <v type="int" >        4       10       14       15       24 </v>
   <v type="int" >        4        9       10       14       24 </v>
   <v type="int" >        4        9       10       19       24 </v>
   <v type="int" >        4       10       15       24       25 </v>
   <v type="int" >        4       10       20       24       25 </v>
   <v type="int" >        4       10       19       20       24 </v>
   <v type="int" >        4       11       15       16       25 </v>
   <v type="int" >        4       10       11       15       25 </v>
   <v type="int" >        4       10       11       20       25 </v>
   <v type="int" >        4       11       16       25       26 </v>
   <v type="int" >        4       11       21       25       26 </v>
   <v type="int" >        4       11       20       21       25 </v>
   <v type="int" >        4       12       14       16       26 </v>
   <v type="int" >        4       11       12       16       26 </v>
   <v type="int" >        4       11       12       21       26 </v>
   <v type="int" >        4       12       14       24       26 </v>
   <v type="int" >        4       12       22       24       26 </v>
   <v type="int" >        4       12       21       22       26 </v>
   <v type="int" >        4        9       13       14       24 </v>
   <v type="int" >        4       12       13       14       24 </v>
   <v type="int" >        4       12       13       22       24 </v>
   <v type="int" >        4        9       13       19       24 </v>
   <v type="int" >        4       13       19       23       24 </v>
   <v type="int" >        4       13       22       23       24 </v>
   <v type="int" >        4        8        9       13       19 </v>
   <v type="int" >        4        8       13       19       23 </v>
   <v type="int" >        4        8       18       19       23 </v>
   <v type="int" >        4       12       14       16       22 </v>
   <v type="int" >        4       12       13       14       22 </v>
   <v type="int" >        4       13       14       22       23 </v>
   <v type="int" >        4       14       16       22       26 </v>
   <v type="int" >        4       14       22       24       26 </v>
   <v type="int" >        4       14       22       23       24 </v>
   <v type="int" >        8       15       16       17       26 </v>
   <v type="int" >        4       14       15       16       26 </v>
   <v type="int" >        4       14       15       24       26 </v>
   <v type="int" >        8       15       17       26       27 </v>
   <v type="int" >        8       15       25       26       27 </v>
   <v type="int" >        4       15       24       25       26 </v>
   <v type="int" >        8       15       16       17       27 </v>
   <v type="int" >        8       15       16       25       27 </v>
   <v type="int" >        8       16       25       26       27 </v>
   <v type="int" >        4       10       14       15       25 </v>
   <v type="int" >        4       14       15       16       25 </v>
   <v type="int" >        4       14       16       25       26 </v>
   <v type="int" >        4       10       14       20       25 </v>
   <v type="int" >        4       14       20       24       25 </v>
   <v type="int" >        4       14       24       25       26 </v>
   <v type="int" >        4        9       10       14       20 </v>
   <v type="int" >        4        9       14       20       24 </v>
   <v type="int" >        4        9       19       20       24 </v>
   <v type="int" >        4       11       15       16       21 </v>
   <v type="int" >        4       11       12       16       21 </v>
   <v type="int" >        4       12       16       21       22 </v>
   <v type="int" >        4       15       16       21       25 </v>
   <v type="int" >        4       16       21       25       26 </v>
   <v type="int" >        4       16       21       22       26 </v>
   <v type="int" >        8       15       16       17       25 </v>
   <v type="int" >        8       16       17       25       26 </v>
   <v type="int" >        8       17       25       26       27 </v>
   <v type="int" >        4       11       15       16       26 </v>
   <v type="int" >        4       11       15       21       26 </v>
   <v type="int" >        4       15       21       25       26 </v>
   <v type="int" >        4       10       11       15       21 </v>
   <v type="int" >        4       10       15       21       25 </v>
   <v type="int" >        4       10       20       21       25 </v>
   <v type="int" >        4       10       14       15       20 </v>
   <v type="int" >        4       10       11       15       20 </v>
   <v type="int" >        4       11       15       20       21 </v>
   <v type="int" >        4       14       15       20       24 </v>
   <v type="int" >        4       15       20       24       25 </v>
   <v type="int" >        4       15       20       21       25 </v>
   <v type="int" >        4       12       14       16       24 </v>
   <v type="int" >        4       14       15       16       24 </v>
   <v type="int" >        4       15       16       24       25 </v>
   <v type="int" >        4       12       16       22       24 </v>
   <v type="int" >        4       16       22       24       26 </v>
   <v type="int" >        4       16       24       25       26 </v>
   <v type="int" >        4       11       12       16       22 </v>
   <v type="int" >        4       11       16       22       26 </v>
   <v type="int" >        4       11       21       22       26 </v>
   <v type="int" >        4        9       13       14       19 </v>
   <v type="int" >        4        9       10       14       19 </v>
   <v type="int" >        4       10       14       19       20 </v>
   <v type="int" >        4       13       14       19       23 </v>
   <v type="int" >        4       14       19       23       24 </v>
   <v type="int" >        4       14       19       20       24 </v>
   <v type="int" >        4       12       13       14       23 </v>
   <v type="int" >        4       12       14       23       24 </v>
   <v type="int" >        4       12       22       23       24 </v>
   <v type="int" >        4        8        9       13       18 </v>
   <v type="int" >        4        9       13       18       19 </v>
   <v type="int" >        4       13       18       19       23 </v>
   <v type="int" >        4       19       19       23       24 </v>
   <v type="int" >        4       18       19       19       23 </v>
   <v type="int" >        2       18       18       19       19 </v>
   <v type="int" >        2       19       19       24       24 </v>
   <v type="int" >        4       20       24       24       25 </v>
   <v type="int" >        4       19       20       24       24 </v>
   <v type="int" >        8       19       20       23       24 </v>
   <v type="int" >        8       20       24       25       26 </v>
   <v type="int" >        8       20       22       24       26 </v>
   <v type="int" >        8       20       22       23       24 </v>
   <v type="int" >        8       21       25       26       26 </v>
   <v type="int" >        8       20       21       25       26 </v>
   <v type="int" >        8       20       21       22       26 </v>
   <v type="int" >        4       21       21       25       26 </v>
   <v type="int" >        4       21       21       22       26 </v>
   <v type="int" >        4       22       24       25       26 </v>
   <v type="int" >        4       21       22       25       26 </v>
   <v type="int" >        4       21       21       22       25 </v>
   <v type="int" >        4       22       24       24       25 </v>
   <v type="int" >        4       20       22       24       25 </v>
   <v type="int" >        4       20       21       22       25 </v>
   <v type="int" >        4       19       23       24       24 </v>
   <v type="int" >        4       22       23       24       24 </v>
   <v type="int" >        8       19       23       23       24 </v>
   <v type="int" >        8       18       19       23       23 </v>
   <v type="int" >        4       18       18       19       23 </v>
   <v type="int" >        8       25       25       26       27 </v>
   <v type="int" >        4       24       25       25       26 </v>
   <v type="int" >        2       24       24       25       25 </v>
   <v type="int" >        4       25       25       27       27 </v>
   <v type="int" >        8       25       26       27       27 </v>
   <v type="int" >       16       25       26       26       27 </v>
   <v type="int" >        8       24       25       26       26 </v>
   <v type="int" >        4       22       24       24       26 </v>
   <v type="int" >        4       24       24       25       26 </v>
   <v type="int" >        4       19       20       22       24 </v>
   <v type="int" >        4       19       22       24       24 </v>
   <v type="int" >        4       19       22       23       24 </v>
   <v type="int" >        4       21       25       25       26 </v>
   <v type="int" >        2       21       21       25       25 </v>
   <v type="int" >        4       20       21       21       25 </v>
  </varray>
  <i name="volumeweight">      0.00092593 </i>
 </kpoints>
 <parameters>
  <separator name="general" >
   <i type="string" name="SYSTEM">unknown system</i>
   <i type="logical" name="LCOMPAT"> F  </i>
  </separator>
  <separator name="electronic" >
   <i type="string" name="PREC">normal</i>
   <i name="ENMAX">    750.00000000</i>
   <i name="ENAUG">    605.39200000</i>
   <i name="EDIFF">      0.00001000</i>
   <i type="int" name="IALGO">    68</i>
   <i type="int" name="IWAVPR">    10</i>
   <i type="int" name="NBANDS">    30</i>
   <i name="NELECT">     48.00000000</i>
   <i type="int" name="TURBO">     0</i>
   <i type="int" name="IRESTART">     0</i>
   <i type="int" name="NREBOOT">     0</i>
   <i type="int" name="NMIN">     0</i>
   <i name="EREF">      0.00000000</i>
   <separator name="electronic smearing" >
    <i type="int" name="ISMEAR">    -5</i>
    <i name="SIGMA">      0.20000000</i>
    <i name="KSPACING">      0.50000000</i>
    <i type="logical" name="KGAMMA"> T  </i>
   </separator>
   <separator name="electronic projectors" >
    <i type="logical" name="LREAL"> T  </i>
    <v name="ROPT">     -0.00050000     -0.00050000</v>
    <i type="int" name="LMAXPAW">  -100</i>
    <i type="int" name="LMAXMIX">     2</i>
    <i type="logical" name="NLSPLINE"> F  </i>
   </separator>
   <separator name="electronic startup" >
    <i type="int" name="ISTART">     0</i>
    <i type="int" name="ICHARG">     2</i>
    <i type="int" name="INIWAV">     1</i>
   </separator>
   <separator name="electronic spin" >
    <i type="int" name="ISPIN">     1</i>
    <i type="logical" name="LNONCOLLINEAR"> F  </i>
    <v name="MAGMOM">      1.00000000      1.00000000      1.00000000      1.00000000      1.00000000      1.00000000      1.00000000      1.00000000      1.00000000</v>
    <i name="NUPDOWN">     -1.00000000</i>
    <i type="logical" name="LSORBIT"> F  </i>
    <v name="SAXIS">      0.00000000      0.00000000      1.00000000</v>
    <i type="logical" name="LSPIRAL"> F  </i>
    <v name="QSPIRAL">      0.00000000      0.00000000      0.00000000</v>
    <i type="logical" name="LZEROZ"> F  </i>
   </separator>
   <separator name="electronic exchange-correlation" >
    <i type="logical" name="LASPH"> F  </i>
    <i type="logical" name="LMETAGGA"> F  </i>
   </separator>
   <separator name="electronic convergence" >
    <i type="int" name="NELM">    60</i>
    <i type="int" name="NELMDL">    -5</i>
    <i type="int" name="NELMIN">     4</i>
    <i name="ENINI">    750.00000000</i>
    <separator name="electronic convergence detail" >
     <i type="logical" name="LDIAG"> T  </i>
     <i type="logical" name="LSUBROT"> F  </i>
     <i name="WEIMIN">      0.00000000</i>
     <i name="EBREAK">      0.00000008</i>
     <i name="DEPER">      0.30000000</i>
     <i type="int" name="NRMM">     4</i>
     <i name="TIME">      0.40000000</i>
    </separator>
   </separator>
   <separator name="electronic mixer" >
    <i name="AMIX">      0.40000000</i>
    <i name="BMIX">      1.00000000</i>
    <i name="AMIN">      0.10000000</i>
    <i name="AMIX_MAG">      1.60000000</i>
    <i name="BMIX_MAG">      1.00000000</i>
    <separator name="electronic mixer details" >
     <i type="int" name="IMIX">     4</i>
     <i type="logical" name="MIXFIRST"> F  </i>
     <i type="int" name="MAXMIX">   -45</i>
     <i name="WC">    100.00000000</i>
     <i type="int" name="INIMIX">     1</i>
     <i type="int" name="MIXPRE">     1</i>
     <i type="int" name="MREMOVE">     5</i>
    </separator>
   </separator>
   <separator name="electronic dipolcorrection" >
    <i type="logical" name="LDIPOL"> F  </i>
    <i type="logical" name="LMONO"> F  </i>
    <i type="int" name="IDIPOL">     0</i>
    <i name="EPSILON">      1.00000000</i>
    <v name="DIPOL">   -100.00000000   -100.00000000   -100.00000000</v>
    <i name="EFIELD">      0.00000000</i>
   </separator>
  </separator>
  <separator name="grids" >
   <i type="int" name="NGX">    36</i>
   <i type="int" name="NGY">    36</i>
   <i type="int" name="NGZ">    36</i>
   <i type="int" name="NGXF">    72</i>
   <i type="int" name="NGYF">    72</i>
   <i type="int" name="NGZF">    72</i>
   <i type="logical" name="ADDGRID"> F  </i>
  </separator>
  <separator name="ionic" >
   <i type="int" name="NSW">     0</i>
   <i type="int" name="IBRION">    -1</i>
   <i type="int" name="MDALGO">     0</i>
   <i type="int" name="ISIF">     2</i>
   <i name="PSTRESS">      0.00000000</i>
   <i name="EDIFFG">      0.00010000</i>
   <i type="int" name="NFREE">     0</i>
   <i name="POTIM">      0.50000000</i>
   <i name="SMASS">     -3.00000000</i>
   <i name="SCALEE">      1.00000000</i>
  </separator>
  <separator name="ionic md" >
   <i name="TEBEG">      0.00010000</i>
   <i name="TEEND">      0.00010000</i>
   <i type="int" name="NBLOCK">     1</i>
   <i type="int" name="KBLOCK">     1</i>
   <i type="int" name="NPACO">   256</i>
   <i name="APACO">     16.00000000</i>
  </separator>
  <separator name="symmetry" >
   <i type="int" name="ISYM">     2</i>
   <i name="SYMPREC">      0.00001000</i>
  </separator>
  <separator name="dos" >
   <i type="int" name="LORBIT">     0</i>
   <v name="RWIGS">     -1.00000000     -1.00000000</v>
   <i type="int" name="NEDOS">   301</i>
   <i name="EMIN">     10.00000000</i>
   <i name="EMAX">    -10.00000000</i>
   <i name="EFERMI">      0.00000000</i>
  </separator>
  <separator name="writing" >
   <i type="int" name="NWRITE">     2</i>
   <i type="logical" name="LWAVE"> F  </i>
   <i type="logical" name="LDOWNSAMPLE"> F  </i>
   <i type="logical" name="LCHARG"> T  </i>
   <i type="logical" name="LPARD"> F  </i>
   <i type="logical" name="LVTOT"> F  </i>
   <i type="logical" name="LVHAR"> F  </i>
   <i type="logical" name="LELF"> F  </i>
   <i type="logical" name="LOPTICS"> F  </i>
   <v name="STM">      0.00000000      0.00000000      0.00000000      0.00000000      0.00000000      0.00000000      0.00000000</v>
  </separator>
  <separator name="performance" >
   <i type="int" name="NPAR">     2</i>
   <i type="int" name="NSIM">     4</i>
   <i type="int" name="NBLK">    -1</i>
   <i type="logical" name="LPLANE"> T  </i>
   <i type="logical" name="LSCALAPACK"> T  </i>
   <i type="logical" name="LSCAAWARE"> F  </i>
   <i type="logical" name="LSCALU"> F  </i>
   <i type="logical" name="LASYNC"> F  </i>
   <i type="logical" name="LORBITALREAL"> F  </i>
  </separator>
  <separator name="miscellaneous" >
   <i type="int" name="IDIOT">     3</i>
   <i type="int" name="ISPECIAL">     0</i>
   <i type="logical" name="LMUSIC"> F  </i>
   <v name="POMASS">     28.08500000     16.00000000</v>
   <v name="DARWINR">      0.00000000      0.00000000</v>
   <v name="DARWINV">      1.00000000      1.00000000</v>
   <i type="logical" name="LCORR"> T  </i>
  </separator>
  <i type="logical" name="GGA_COMPAT"> T  </i>
  <i type="logical" name="LBERRY"> F  </i>
  <i type="int" name="ICORELEVEL">     0</i>
  <i type="logical" name="LDAU"> F  </i>
  <i type="int" name="I_CONSTRAINED_M">     0</i>
  <separator name="electronic exchange-correlation" >
   <i type="string" name="GGA">--</i>
   <i type="int" name="VOSKOWN">     0</i>
   <i type="logical" name="LHFCALC"> F  </i>
   <i type="string" name="PRECFOCK"></i>
   <i type="logical" name="LSYMGRAD"> F  </i>
   <i type="logical" name="LHFONE"> F  </i>
   <i type="logical" name="LRHFCALC"> F  </i>
   <i type="logical" name="LTHOMAS"> F  </i>
   <i type="logical" name="LMODELHF"> F  </i>
   <i name="ENCUT4O">     -1.00000000</i>
   <i type="int" name="EXXOEP">     0</i>
   <i type="int" name="FOURORBIT">     0</i>
   <i name="AEXX">      0.00000000</i>
   <i name="HFALPHA">      0.00000000</i>
   <i name="MCALPHA">      0.00000000</i>
   <i name="ALDAX">      1.00000000</i>
   <i name="AGGAX">      1.00000000</i>
   <i name="ALDAC">      1.00000000</i>
   <i name="AGGAC">      1.00000000</i>
   <i type="int" name="NKREDX">     1</i>
   <i type="int" name="NKREDY">     1</i>
   <i type="int" name="NKREDZ">     1</i>
   <i type="logical" name="SHIFTRED"> F  </i>
   <i type="logical" name="ODDONLY"> F  </i>
   <i type="logical" name="EVENONLY"> F  </i>
   <i type="int" name="LMAXFOCK">     0</i>
   <i type="int" name="NMAXFOCKAE">     0</i>
   <i type="logical" name="LFOCKAEDFT"> F  </i>
   <i name="HFSCREEN">      0.00000000</i>
   <i name="HFSCREENC">      0.00000000</i>
   <i type="int" name="NBANDSGWLOW">     0</i>
  </separator>
  <separator name="vdW DFT" >
   <i type="logical" name="LUSE_VDW"> F  </i>
   <i name="Zab_VDW">     -0.84910000</i>
   <i name="PARAM1">      0.12340000</i>
   <i name="PARAM2">      1.00000000</i>
   <i name="PARAM3">      0.00000000</i>
  </separator>
  <separator name="model GW" >
   <i type="int" name="MODEL_GW">     0</i>
   <i name="MODEL_EPS0">      7.53504921</i>
   <i name="MODEL_ALPHA">      1.00000000</i>
  </separator>
  <separator name="linear response parameters" >
   <i type="logical" name="LEPSILON"> F  </i>
   <i type="logical" name="LRPA"> F  </i>
   <i type="logical" name="LNABLA"> F  </i>
   <i type="logical" name="LVEL"> F  </i>
   <i type="int" name="KINTER">     0</i>
   <i name="CSHIFT">      0.10000000</i>
   <i name="OMEGAMAX">     -1.00000000</i>
   <i name="DEG_THRESHOLD">      0.00200000</i>
   <i name="RTIME">     -0.10000000</i>
   <i name="WPLASMAI">      0.00000000</i>
   <v name="DFIELD">      0.00000000      0.00000000      0.00000000</v>
   <v name="WPLASMA">      0.00000000      0.00000000      0.00000000      0.00000000      0.00000000      0.00000000      0.00000000      0.00000000      0.00000000</v>
  </separator>
  <separator name="orbital magnetization" >
   <i type="logical" name="NUCIND"> F  </i>
   <v name="MAGPOS">      0.00000000      0.00000000      0.00000000</v>
   <i type="logical" name="LNICSALL"> T  </i>
   <i type="logical" name="ORBITALMAG"> F  </i>
   <i type="logical" name="LMAGBLOCH"> F  </i>
   <i type="logical" name="LCHIMAG"> F  </i>
   <i type="logical" name="LGAUGE"> T  </i>
   <i type="int" name="MAGATOM">     0</i>
   <v name="MAGDIPOL">      0.00000000      0.00000000      0.00000000</v>
   <v name="AVECCONST">      0.00000000      0.00000000      0.00000000</v>
  </separator>
  <separator name="response functions" >
   <i type="logical" name="LADDER"> F  </i>
   <i type="logical" name="LRPAFORCE"> F  </i>
   <i type="logical" name="LFXC"> F  </i>
   <i type="logical" name="LHARTREE"> T  </i>
   <i type="int" name="IBSE">     0</i>
   <v type="int" name="KPOINT">    -1     0     0     0</v>
   <i type="logical" name="LTCTE"> F  </i>
   <i type="logical" name="LTETE"> F  </i>
   <i type="logical" name="LTRIPLET"> F  </i>
   <i type="logical" name="LFXCEPS"> F  </i>
   <i type="logical" name="LFXHEG"> F  </i>
   <i type="int" name="NATURALO">     2</i>
   <i type="logical" name="L2ORDER"> F  </i>
   <i type="logical" name="LMP2LT"> F  </i>
   <i type="logical" name="LUSEW"> F  </i>
   <i name="ENCUTGW">     -2.00000000</i>
   <i name="ENCUTGWSOFT">     -2.00000000</i>
   <i name="ENCUTLF">     -1.00000000</i>
   <i type="int" name="LMAXMP2">    -1</i>
   <i name="SCISSOR">      0.00000000</i>
   <i type="int" name="NOMEGA">     0</i>
   <i type="int" name="NOMEGAR">     0</i>
   <i type="int" name="NBANDSGW">    -1</i>
   <i type="int" name="NBANDSO">    -1</i>
   <i type="int" name="NBANDSV">    -1</i>
   <i type="int" name="NELM">     1</i>
   <i type="int" name="NELMHF">     1</i>
   <i type="int" name="DIM">     3</i>
   <i type="int" name="ANTIRES">     0</i>
   <i name="OMEGAMAX">    -30.00000000</i>
   <i name="OMEGAMIN">    -30.00000000</i>
   <i name="OMEGATL">   -200.00000000</i>
   <i type="int" name="OMEGAGRID">   140</i>
   <i name="CSHIFT">     -0.10000000</i>
   <i type="logical" name="SELFENERGY"> F  </i>
   <i type="logical" name="LSPECTRAL"> F  </i>
   <i type="logical" name="LSPECTRALGW"> F  </i>
   <i type="logical" name="LSINGLES"> F  </i>
   <i type="logical" name="LFERMIGW"> F  </i>
   <i type="logical" name="ODDONLYGW"> F  </i>
   <i type="logical" name="EVENONLYGW"> F  </i>
   <i type="int" name="NKREDLFX">     1</i>
   <i type="int" name="NKREDLFY">     1</i>
   <i type="int" name="NKREDLFZ">     1</i>
   <i type="int" name="MAXMEM">  2800</i>
   <i type="int" name="TELESCOPE">     0</i>
   <i type="int" name="TAUPAR">     1</i>
   <i type="int" name="OMEGAPAR">    -1</i>
   <i name="LAMBDA">      1.00000000</i>
  </separator>
  <separator name="External order field" >
   <i name="OFIELD_KAPPA">      0.00000000</i>
   <v name="OFIELD_K">      0.00000000      0.00000000      0.00000000</v>
   <i name="OFIELD_Q6_NEAR">      0.00000000</i>
   <i name="OFIELD_Q6_FAR">      0.00000000</i>
   <i name="OFIELD_A">      0.00000000</i>
  </separator>
 </parameters>
 <atominfo>
  <atoms>       9 </atoms>
  <types>       2 </types>
  <array name="atoms" >
   <dimension dim="1">ion</dimension>
   <field type="string">element</field>
   <field type="int">atomtype</field>
   <set>
    <rc><c>Si</c><c>   1</c></rc>
    <rc><c>Si</c><c>   1</c></rc>
    <rc><c>Si</c><c>   1</c></rc>
    <rc><c>O </c><c>   2</c></rc>
    <rc><c>O </c><c>   2</c></rc>
    <rc><c>O </c><c>   2</c></rc>
    <rc><c>O </c><c>   2</c></rc>
    <rc><c>O </c><c>   2</c></rc>
    <rc><c>O </c><c>   2</c></rc>
   </set>
  </array>
  <array name="atomtypes" >
   <dimension dim="1">type</dimension>
   <field type="int">atomspertype</field>
   <field type="string">element</field>
   <field>mass</field>
   <field>valence</field>
   <field type="string">pseudopotential</field>
   <set>
    <rc><c>   3</c><c>Si</c><c>     28.08500000</c><c>      4.00000000</c><c> PAW_PBE Si 05Jan2001                   </c></rc>
    <rc><c>   6</c><c>O </c><c>     16.00000000</c><c>      6.00000000</c><c> PAW_PBE O 08Apr2002                    </c></rc>
   </set>
  </array>
 </atominfo>
 <structure name="initialpos" >
  <crystal>
   <varray name="basis" >
    <v>       4.91380000       0.00000000       0.00000000 </v>
    <v>      -2.45690000       4.25547563       0.00000000 </v>
    <v>       0.00000000       0.00000000       5.40520000 </v>
   </varray>
   <i name="volume">    113.02573808 </i>
   <varray name="rec_basis" >
    <v>       0.20350849       0.11749568       0.00000000 </v>
    <v>       0.00000000       0.23499136       0.00000000 </v>
    <v>       0.00000000       0.00000000       0.18500703 </v>
   </varray>
  </crystal>
  <varray name="positions" >
   <v>       0.46980000       0.00000000       0.66666667 </v>
   <v>       0.53020000       0.53020000       0.00000000 </v>
   <v>       0.00000000       0.46980000       0.33333333 </v>
   <v>       0.41450000       0.26620000       0.78560000 </v>
   <v>       0.58550000       0.85170000       0.88106667 </v>
   <v>       0.14830000       0.73380000       0.54773333 </v>
   <v>       0.26620000       0.41450000       0.21440000 </v>
   <v>       0.85170000       0.58550000       0.11893333 </v>
   <v>       0.73380000       0.14830000       0.45226667 </v>
  </varray>
 </structure>
 <calculation>
  <scstep>
   <time name="dav">    1.68    1.71</time>
   <time name="total">    1.76    1.92</time>
   <energy>
    <i name="alphaZ">     69.72428684 </i>
    <i name="ewald">  -1887.17190222 </i>
    <i name="hartreedc">   -937.16683993 </i>
    <i name="XCdc">    142.01202172 </i>
    <i name="pawpsdc">   1574.92322788 </i>
    <i name="pawaedc">  -1533.24131965 </i>
    <i name="eentropy">      0.00000000 </i>
    <i name="bandstr">     39.53441739 </i>
    <i name="atom">   2903.43715298 </i>
    <i name="e_fr_energy">    372.05104502 </i>
    <i name="e_wo_entrp">    372.05104502 </i>
    <i name="e_0_energy">    372.05104502 </i>
   </energy>
  </scstep>
  <scstep>
   <time name="dav">    2.07    2.08</time>
   <time name="total">    2.07    2.08</time>
   <energy>
    <i name="e_fr_energy">    -56.40451434 </i>
    <i name="e_wo_entrp">    -56.40451434 </i>
    <i name="e_0_energy">    -56.40451434 </i>
   </energy>
  </scstep>
  <scstep>
   <time name="dav">    1.91    1.92</time>
   <time name="total">    1.91    1.92</time>
   <energy>
    <i name="e_fr_energy">    -80.34442468 </i>
    <i name="e_wo_entrp">    -80.34442468 </i>
    <i name="e_0_energy">    -80.34442468 </i>
   </energy>
  </scstep>
  <scstep>
   <time name="dav">    1.91    1.92</time>
   <time name="total">    1.91    1.92</time>
   <energy>
    <i name="e_fr_energy">    -80.65973346 </i>
    <i name="e_wo_entrp">    -80.65973346 </i>
    <i name="e_0_energy">    -80.65973346 </i>
   </energy>
  </scstep>
  <scstep>
   <time name="dav">    1.83    1.84</time>
   <time name="total">    1.94    1.95</time>
   <energy>
    <i name="e_fr_energy">    -80.66525837 </i>
    <i name="e_wo_entrp">    -80.66525837 </i>
    <i name="e_0_energy">    -80.66525837 </i>
   </energy>
  </scstep>
  <scstep>
   <time name="diag">    0.32    0.32</time>
   <time name="diis">    1.11    1.12</time>
   <time name="orth">    0.04    0.04</time>
   <time name="total">    1.64    1.65</time>
   <energy>
    <i name="e_fr_energy">    -71.06951053 </i>
    <i name="e_wo_entrp">    -71.06951053 </i>
    <i name="e_0_energy">    -71.06951053 </i>
   </energy>
  </scstep>
  <scstep>
   <time name="diag">    0.32    0.33</time>
   <time name="diis">    1.22    1.23</time>
   <time name="orth">    0.04    0.04</time>
   <time name="total">    1.76    1.77</time>
   <energy>
    <i name="e_fr_energy">    -71.04119035 </i>
    <i name="e_wo_entrp">    -71.04119035 </i>
    <i name="e_0_energy">    -71.04119035 </i>
   </energy>
  </scstep>
  <scstep>
   <time name="diag">    0.32    0.32</time>
   <time name="diis">    1.21    1.22</time>
   <time name="orth">    0.04    0.04</time>
   <time name="total">    1.76    1.78</time>
   <energy>
    <i name="e_fr_energy">    -71.05719136 </i>
    <i name="e_wo_entrp">    -71.05719136 </i>
    <i name="e_0_energy">    -71.05719136 </i>
   </energy>
  </scstep>
  <scstep>
   <time name="diag">    0.32    0.32</time>
   <time name="diis">    1.30    1.32</time>
   <time name="orth">    0.04    0.04</time>
   <time name="total">    1.83    1.86</time>
   <energy>
    <i name="e_fr_energy">    -71.05020970 </i>
    <i name="e_wo_entrp">    -71.05020970 </i>
    <i name="e_0_energy">    -71.05020970 </i>
   </energy>
  </scstep>
  <scstep>
   <time name="diag">    0.33    0.33</time>
   <time name="diis">    1.24    1.25</time>
   <time name="orth">    0.04    0.04</time>
   <time name="total">    1.78    1.79</time>
   <energy>
    <i name="e_fr_energy">    -71.05317170 </i>
    <i name="e_wo_entrp">    -71.05317170 </i>
    <i name="e_0_energy">    -71.05317170 </i>
   </energy>
  </scstep>
  <scstep>
   <time name="diag">    0.32    0.32</time>
   <time name="diis">    1.24    1.25</time>
   <time name="orth">    0.04    0.04</time>
   <time name="total">    1.77    1.78</time>
   <energy>
    <i name="e_fr_energy">    -71.05190858 </i>
    <i name="e_wo_entrp">    -71.05190858 </i>
    <i name="e_0_energy">    -71.05190858 </i>
   </energy>
  </scstep>
  <scstep>
   <time name="diag">    0.32    0.32</time>
   <time name="diis">    1.27    1.28</time>
   <time name="orth">    0.04    0.04</time>
   <time name="total">    1.80    1.82</time>
   <energy>
    <i name="e_fr_energy">    -71.05186524 </i>
    <i name="e_wo_entrp">    -71.05186524 </i>
    <i name="e_0_energy">    -71.05186524 </i>
   </energy>
  </scstep>
  <scstep>
   <time name="diag">    0.34    0.34</time>
   <time name="diis">    0.94    0.94</time>
   <time name="orth">    0.04    0.04</time>
   <time name="total">    1.38    1.39</time>
   <energy>
    <i name="alphaZ">     69.72428684 </i>
    <i name="ewald">  -1887.17190222 </i>
    <i name="hartreedc">  -1071.54479459 </i>
    <i name="XCdc">    151.13063287 </i>
    <i name="pawpsdc">   2051.71762318 </i>
    <i name="pawaedc">  -2012.38641046 </i>
    <i name="eentropy">      0.00000000 </i>
    <i name="bandstr">   -275.95845498 </i>
    <i name="atom">   2903.43715298 </i>
    <i name="e_fr_energy">    -71.05186638 </i>
    <i name="e_wo_entrp">    -71.05186638 </i>
    <i name="e_0_energy">    -71.05186638 </i>
   </energy>
  </scstep>
  <structure>
   <crystal>
    <varray name="basis" >
     <v>       4.91380000       0.00000000       0.00000000 </v>
     <v>      -2.45690000       4.25547563       0.00000000 </v>
     <v>       0.00000000       0.00000000       5.40520000 </v>
    </varray>
    <i name="volume">    113.02573808 </i>
    <varray name="rec_basis" >
     <v>       0.20350849       0.11749568       0.00000000 </v>
     <v>       0.00000000       0.23499136       0.00000000 </v>
     <v>       0.00000000       0.00000000       0.18500703 </v>
    </varray>
   </crystal>
   <varray name="positions" >
    <v>       0.46980000       0.00000000       0.66666667 </v>
    <v>       0.53020000       0.53020000       0.00000000 </v>
    <v>       0.00000000       0.46980000       0.33333333 </v>
    <v>       0.41450000       0.26620000       0.78560000 </v>
    <v>       0.58550000       0.85170000       0.88106667 </v>
    <v>       0.14830000       0.73380000       0.54773333 </v>
    <v>       0.26620000       0.41450000       0.21440000 </v>
    <v>       0.85170000       0.58550000       0.11893333 </v>
    <v>       0.73380000       0.14830000       0.45226667 </v>
   </varray>
  </structure>
  <varray name="forces" >
   <v>       0.39937947       0.00000000       0.00000000 </v>
   <v>      -0.19968974      -0.34587277       0.00000000 </v>
   <v>      -0.19968974       0.34587277       0.00000000 </v>
   <v>      -0.52312002       0.29341679       0.06612263 </v>
   <v>       0.00745362       0.59974362      -0.06612263 </v>
   <v>      -0.52312002      -0.29341679      -0.06612263 </v>
   <v>       0.51566640      -0.30632683      -0.06612263 </v>
   <v>       0.51566640       0.30632683       0.06612263 </v>
   <v>       0.00745362      -0.59974362       0.06612263 </v>
  </varray>
  <varray name="stress" >
   <v>      84.97734081      -0.00000000       0.00000000 </v>
   <v>      -0.00000000      84.97734081       0.00000000 </v>
   <v>      -0.00000000      -0.00000000      69.52455290 </v>
  </varray>
  <energy>
   <i name="e_fr_energy">    -71.05186638 </i>
   <i name="e_wo_entrp">    -71.05186638 </i>
   <i name="e_0_energy">      0.00000000 </i>
  </energy>
  <time name="totalsc">   26.15   26.65</time>
  <eigenvalues>
   <array>
    <dimension dim="1">band</dimension>
    <dimension dim="2">kpoint</dimension>
    <dimension dim="3">spin</dimension>
    <field>eigene</field>
    <field>occ</field>
    <set>
     <set comment="spin 1">
      <set comment="kpoint 1">
       <r>  -18.3723    1.0000 </r>
       <r>  -16.8356    1.0000 </r>
       <r>  -16.8356    1.0000 </r>
       <r>  -16.2010    1.0000 </r>
       <r>  -16.1530    1.0000 </r>
       <r>  -16.1530    1.0000 </r>
       <r>   -7.1766    1.0000 </r>
       <r>   -7.1766    1.0000 </r>
       <r>   -4.3364    1.0000 </r>
       <r>   -4.3305    1.0000 </r>
       <r>   -4.1783    1.0000 </r>
       <r>   -4.1783    1.0000 </r>
       <r>   -1.8599    1.0000 </r>
       <r>   -1.8599    1.0000 </r>
       <r>   -1.6228    1.0000 </r>
       <r>   -1.3625    1.0000 </r>
       <r>   -0.4120    1.0000 </r>
       <r>   -0.4120    1.0000 </r>
       <r>   -0.3941    1.0000 </r>
       <r>    0.1091    1.0000 </r>
       <r>    0.1091    1.0000 </r>
       <r>    0.4184    1.0000 </r>
       <r>    0.7588    1.0000 </r>
       <r>    0.7588    1.0000 </r>
       <r>    7.1199    0.0000 </r>
       <r>   10.3977    0.0000 </r>
       <r>   10.3977    0.0000 </r>
       <r>   10.8994    0.0000 </r>
       <r>   10.8994    0.0000 </r>
       <r>   12.7071    0.0000 </r>
      </set>
      <set comment="kpoint 2">
       <r>  -18.2908    1.0000 </r>
       <r>  -16.9299    1.0000 </r>
       <r>  -16.8237    1.0000 </r>
       <r>  -16.2206    1.0000 </r>
       <r>  -16.1701    1.0000 </r>
       <r>  -16.1594    1.0000 </r>
       <r>   -7.2141    1.0000 </r>
       <r>   -6.9950    1.0000 </r>
       <r>   -4.3764    1.0000 </r>
       <r>   -4.3505    1.0000 </r>
       <r>   -4.2791    1.0000 </r>
       <r>   -4.0177    1.0000 </r>
       <r>   -1.9851    1.0000 </r>
       <r>   -1.8002    1.0000 </r>
       <r>   -1.5926    1.0000 </r>
       <r>   -1.1962    1.0000 </r>
       <r>   -0.6855    1.0000 </r>
       <r>   -0.4509    1.0000 </r>
       <r>   -0.4055    1.0000 </r>
       <r>    0.0464    1.0000 </r>
       <r>    0.0991    1.0000 </r>
       <r>    0.3162    1.0000 </r>
       <r>    0.8221    1.0000 </r>
       <r>    0.8558    1.0000 </r>
       <r>    7.5420    0.0000 </r>
       <r>   10.3843    0.0000 </r>
       <r>   10.4446    0.0000 </r>
       <r>   10.9344    0.0000 </r>
       <r>   11.0428    0.0000 </r>
       <r>   12.3456    0.0000 </r>
      </set>
      <set comment="kpoint 3">
       <r>  -18.0719    1.0000 </r>
       <r>  -17.1891    1.0000 </r>
       <r>  -16.7982    1.0000 </r>
       <r>  -16.2438    1.0000 </r>
       <r>  -16.1985    1.0000 </r>
       <r>  -16.1785    1.0000 </r>
       <r>   -7.2858    1.0000 </r>
       <r>   -6.5755    1.0000 </r>
       <r>   -4.6324    1.0000 </r>
       <r>   -4.3842    1.0000 </r>
       <r>   -4.3024    1.0000 </r>
       <r>   -3.7154    1.0000 </r>
       <r>   -2.0676    1.0000 </r>
       <r>   -1.6919    1.0000 </r>
       <r>   -1.5672    1.0000 </r>
       <r>   -1.2002    1.0000 </r>
       <r>   -1.0012    1.0000 </r>
       <r>   -0.5819    1.0000 </r>
       <r>   -0.4901    1.0000 </r>
       <r>   -0.0049    1.0000 </r>
       <r>    0.0643    1.0000 </r>
       <r>    0.2673    1.0000 </r>
       <r>    0.8500    1.0000 </r>
       <r>    0.9993    1.0000 </r>
       <r>    8.5408    0.0000 </r>
       <r>   10.4275    0.0000 </r>
       <r>   10.5548    0.0000 </r>
       <r>   11.0553    0.0000 </r>
       <r>   11.3929    0.0000 </r>
       <r>   11.7529    0.0000 </r>
      </set>
      <set comment="kpoint 4">
       <r>  -17.8824    1.0000 </r>
       <r>  -17.4037    1.0000 </r>
       <r>  -16.7845    1.0000 </r>
       <r>  -16.2497    1.0000 </r>
       <r>  -16.2112    1.0000 </r>
       <r>  -16.1901    1.0000 </r>
       <r>   -7.3201    1.0000 </r>
       <r>   -6.3132    1.0000 </r>
       <r>   -4.8207    1.0000 </r>
       <r>   -4.3616    1.0000 </r>
       <r>   -4.3305    1.0000 </r>
       <r>   -3.5498    1.0000 </r>
       <r>   -1.9955    1.0000 </r>
       <r>   -1.8290    1.0000 </r>
       <r>   -1.5985    1.0000 </r>
       <r>   -1.2174    1.0000 </r>
       <r>   -1.0092    1.0000 </r>
       <r>   -0.6649    1.0000 </r>
       <r>   -0.5976    1.0000 </r>
       <r>   -0.0079    1.0000 </r>
       <r>    0.0573    1.0000 </r>
       <r>    0.2978    1.0000 </r>
       <r>    0.8331    1.0000 </r>
       <r>    1.0569    1.0000 </r>
       <r>    9.3785    0.0000 </r>
       <r>   10.1151    0.0000 </r>
       <r>   10.8426    0.0000 </r>
       <r>   10.8432    0.0000 </r>
       <r>   11.6217    0.0000 </r>
       <r>   11.6971    0.0000 </r>
      </set>
      <set comment="kpoint 5">
       <r>  -18.1381    1.0000 </r>
       <r>  -17.1058    1.0000 </r>
       <r>  -16.8122    1.0000 </r>
       <r>  -16.2385    1.0000 </r>
       <r>  -16.1954    1.0000 </r>
       <r>  -16.1690    1.0000 </r>
       <r>   -7.2782    1.0000 </r>
       <r>   -6.6692    1.0000 </r>
       <r>   -4.6402    1.0000 </r>
       <r>   -4.3692    1.0000 </r>
       <r>   -4.2273    1.0000 </r>
       <r>   -3.8049    1.0000 </r>
       <r>   -2.0346    1.0000 </r>
       <r>   -1.7872    1.0000 </r>
       <r>   -1.4876    1.0000 </r>
       <r>   -1.0877    1.0000 </r>
       <r>   -1.0800    1.0000 </r>
       <r>   -0.5607    1.0000 </r>
       <r>   -0.3629    1.0000 </r>
       <r>   -0.1311    1.0000 </r>
       <r>    0.1819    1.0000 </r>
       <r>    0.2272    1.0000 </r>
       <r>    0.8409    1.0000 </r>
       <r>    0.9768    1.0000 </r>
       <r>    8.2495    0.0000 </r>
       <r>   10.4268    0.0000 </r>
       <r>   10.5687    0.0000 </r>
       <r>   11.0514    0.0000 </r>
       <r>   11.2212    0.0000 </r>
       <r>   11.9533    0.0000 </r>
      </set>
      <set comment="kpoint 6">
       <r>  -17.8892    1.0000 </r>
       <r>  -17.3843    1.0000 </r>
       <r>  -16.8044    1.0000 </r>
       <r>  -16.2470    1.0000 </r>
       <r>  -16.2095    1.0000 </r>
       <r>  -16.1873    1.0000 </r>
       <r>   -7.3434    1.0000 </r>
       <r>   -6.2132    1.0000 </r>
       <r>   -5.0397    1.0000 </r>
       <r>   -4.3214    1.0000 </r>
       <r>   -4.2297    1.0000 </r>
       <r>   -3.5575    1.0000 </r>
       <r>   -1.9839    1.0000 </r>
       <r>   -1.7849    1.0000 </r>
       <r>   -1.6585    1.0000 </r>
       <r>   -1.1646    1.0000 </r>
       <r>   -1.0022    1.0000 </r>
       <r>   -0.6960    1.0000 </r>
       <r>   -0.5077    1.0000 </r>
       <r>   -0.1895    1.0000 </r>
       <r>    0.0298    1.0000 </r>
       <r>    0.4222    1.0000 </r>
       <r>    0.7994    1.0000 </r>
       <r>    1.0682    1.0000 </r>
       <r>    9.2661    0.0000 </r>
       <r>   10.3654    0.0000 </r>
       <r>   10.6827    0.0000 </r>
       <r>   11.0858    0.0000 </r>
       <r>   11.4965    0.0000 </r>
       <r>   11.7023    0.0000 </r>
      </set>
      <set comment="kpoint 7">
       <r>  -17.6373    1.0000 </r>
       <r>  -17.6373    1.0000 </r>
       <r>  -16.8185    1.0000 </r>
       <r>  -16.2459    1.0000 </r>
       <r>  -16.2017    1.0000 </r>
       <r>  -16.2017    1.0000 </r>
       <r>   -7.3811    1.0000 </r>
       <r>   -5.6426    1.0000 </r>
       <r>   -5.6426    1.0000 </r>
       <r>   -4.2388    1.0000 </r>
       <r>   -4.2388    1.0000 </r>
       <r>   -3.4633    1.0000 </r>
       <r>   -1.8543    1.0000 </r>
       <r>   -1.8543    1.0000 </r>
       <r>   -1.8035    1.0000 </r>
       <r>   -0.9775    1.0000 </r>
       <r>   -0.9775    1.0000 </r>
       <r>   -0.8215    1.0000 </r>
       <r>   -0.6249    1.0000 </r>
       <r>   -0.1470    1.0000 </r>
       <r>   -0.1470    1.0000 </r>
       <r>    0.6579    1.0000 </r>
       <r>    0.6579    1.0000 </r>
       <r>    1.0995    1.0000 </r>
       <r>   10.0499    0.0000 </r>
       <r>   10.0499    0.0000 </r>
       <r>   10.5375    0.0000 </r>
       <r>   11.4773    0.0000 </r>
       <r>   11.6493    0.0000 </r>
       <r>   11.6933    0.0000 </r>
      </set>
      <set comment="kpoint 8">
       <r>  -18.2938    1.0000 </r>
       <r>  -17.2847    1.0000 </r>
       <r>  -16.4511    1.0000 </r>
       <r>  -16.1987    1.0000 </r>
       <r>  -16.1687    1.0000 </r>
       <r>  -16.1379    1.0000 </r>
       <r>   -7.8494    1.0000 </r>
       <r>   -6.3493    1.0000 </r>
       <r>   -4.4960    1.0000 </r>
       <r>   -4.4197    1.0000 </r>
       <r>   -4.3709    1.0000 </r>
       <r>   -3.8730    1.0000 </r>
       <r>   -1.9439    1.0000 </r>
       <r>   -1.6654    1.0000 </r>
       <r>   -1.5647    1.0000 </r>
       <r>   -1.2326    1.0000 </r>
       <r>   -0.6051    1.0000 </r>
       <r>   -0.4842    1.0000 </r>
       <r>   -0.4240    1.0000 </r>
       <r>   -0.2841    1.0000 </r>
       <r>    0.0774    1.0000 </r>
       <r>    0.5188    1.0000 </r>
       <r>    0.8093    1.0000 </r>
       <r>    0.9688    1.0000 </r>
       <r>    7.5140    0.0000 </r>
       <r>   10.2548    0.0000 </r>
       <r>   10.4189    0.0000 </r>
       <r>   10.5202    0.0000 </r>
       <r>   11.2226    0.0000 </r>
       <r>   12.1761    0.0000 </r>
      </set>
      <set comment="kpoint 9">
       <r>  -18.2166    1.0000 </r>
       <r>  -17.2838    1.0000 </r>
       <r>  -16.5343    1.0000 </r>
       <r>  -16.2137    1.0000 </r>
       <r>  -16.1878    1.0000 </r>
       <r>  -16.1491    1.0000 </r>
       <r>   -7.7046    1.0000 </r>
       <r>   -6.3576    1.0000 </r>
       <r>   -4.6744    1.0000 </r>
       <r>   -4.3779    1.0000 </r>
       <r>   -4.1816    1.0000 </r>
       <r>   -3.9226    1.0000 </r>
       <r>   -2.0441    1.0000 </r>
       <r>   -1.6495    1.0000 </r>
       <r>   -1.5288    1.0000 </r>
       <r>   -1.1551    1.0000 </r>
       <r>   -0.8346    1.0000 </r>
       <r>   -0.4983    1.0000 </r>
       <r>   -0.3951    1.0000 </r>
       <r>   -0.2401    1.0000 </r>
       <r>    0.1602    1.0000 </r>
       <r>    0.4150    1.0000 </r>
       <r>    0.7506    1.0000 </r>
       <r>    1.0103    1.0000 </r>
       <r>    7.8898    0.0000 </r>
       <r>   10.2684    0.0000 </r>
       <r>   10.5104    0.0000 </r>
       <r>   10.6051    0.0000 </r>
       <r>   11.2977    0.0000 </r>
       <r>   11.9821    0.0000 </r>
      </set>
      <set comment="kpoint 10">
       <r>  -18.0149    1.0000 </r>
       <r>  -17.3239    1.0000 </r>
       <r>  -16.7206    1.0000 </r>
       <r>  -16.2412    1.0000 </r>
       <r>  -16.2140    1.0000 </r>
       <r>  -16.1688    1.0000 </r>
       <r>   -7.4115    1.0000 </r>
       <r>   -6.3294    1.0000 </r>
       <r>   -4.9095    1.0000 </r>
       <r>   -4.3366    1.0000 </r>
       <r>   -4.1006    1.0000 </r>
       <r>   -3.8265    1.0000 </r>
       <r>   -2.1392    1.0000 </r>
       <r>   -1.7121    1.0000 </r>
       <r>   -1.4750    1.0000 </r>
       <r>   -1.2123    1.0000 </r>
       <r>   -0.8964    1.0000 </r>
       <r>   -0.6032    1.0000 </r>
       <r>   -0.4924    1.0000 </r>
       <r>   -0.0551    1.0000 </r>
       <r>    0.1598    1.0000 </r>
       <r>    0.2793    1.0000 </r>
       <r>    0.7932    1.0000 </r>
       <r>    0.9657    1.0000 </r>
       <r>    8.8056    0.0000 </r>
       <r>   10.3202    0.0000 </r>
       <r>   10.5724    0.0000 </r>
       <r>   11.0315    0.0000 </r>
       <r>   11.4054    0.0000 </r>
       <r>   11.6572    0.0000 </r>
      </set>
      <set comment="kpoint 11">
       <r>  -17.8600    1.0000 </r>
       <r>  -17.3926    1.0000 </r>
       <r>  -16.8311    1.0000 </r>
       <r>  -16.2500    1.0000 </r>
       <r>  -16.2157    1.0000 </r>
       <r>  -16.1813    1.0000 </r>
       <r>   -7.2725    1.0000 </r>
       <r>   -6.2741    1.0000 </r>
       <r>   -5.0451    1.0000 </r>
       <r>   -4.3581    1.0000 </r>
       <r>   -4.1060    1.0000 </r>
       <r>   -3.6731    1.0000 </r>
       <r>   -2.0476    1.0000 </r>
       <r>   -1.9466    1.0000 </r>
       <r>   -1.4715    1.0000 </r>
       <r>   -1.2623    1.0000 </r>
       <r>   -0.8461    1.0000 </r>
       <r>   -0.7261    1.0000 </r>
       <r>   -0.4219    1.0000 </r>
       <r>   -0.0739    1.0000 </r>
       <r>    0.1389    1.0000 </r>
       <r>    0.3316    1.0000 </r>
       <r>    0.7202    1.0000 </r>
       <r>    0.9962    1.0000 </r>
       <r>    9.5717    0.0000 </r>
       <r>   10.1810    0.0000 </r>
       <r>   10.6857    0.0000 </r>
       <r>   11.1519    0.0000 </r>
       <r>   11.5779    0.0000 </r>
       <r>   11.6429    0.0000 </r>
      </set>
      <set comment="kpoint 12">
       <r>  -18.0186    1.0000 </r>
       <r>  -17.3038    1.0000 </r>
       <r>  -16.7540    1.0000 </r>
       <r>  -16.2333    1.0000 </r>
       <r>  -16.1930    1.0000 </r>
       <r>  -16.1802    1.0000 </r>
       <r>   -7.4151    1.0000 </r>
       <r>   -6.3308    1.0000 </r>
       <r>   -4.9112    1.0000 </r>
       <r>   -4.3758    1.0000 </r>
       <r>   -4.0775    1.0000 </r>
       <r>   -3.7770    1.0000 </r>
       <r>   -2.0749    1.0000 </r>
       <r>   -1.7035    1.0000 </r>
       <r>   -1.5281    1.0000 </r>
       <r>   -1.3906    1.0000 </r>
       <r>   -0.9260    1.0000 </r>
       <r>   -0.5016    1.0000 </r>
       <r>   -0.3483    1.0000 </r>
       <r>   -0.0911    1.0000 </r>
       <r>    0.0618    1.0000 </r>
       <r>    0.3933    1.0000 </r>
       <r>    0.6354    1.0000 </r>
       <r>    1.0590    1.0000 </r>
       <r>    8.7719    0.0000 </r>
       <r>   10.3797    0.0000 </r>
       <r>   10.7656    0.0000 </r>
       <r>   11.1767    0.0000 </r>
       <r>   11.3548    0.0000 </r>
       <r>   11.7429    0.0000 </r>
      </set>
      <set comment="kpoint 13">
       <r>  -18.2172    1.0000 </r>
       <r>  -17.2798    1.0000 </r>
       <r>  -16.5455    1.0000 </r>
       <r>  -16.2124    1.0000 </r>
       <r>  -16.1773    1.0000 </r>
       <r>  -16.1532    1.0000 </r>
       <r>   -7.7056    1.0000 </r>
       <r>   -6.3577    1.0000 </r>
       <r>   -4.6786    1.0000 </r>
       <r>   -4.3791    1.0000 </r>
       <r>   -4.1958    1.0000 </r>
       <r>   -3.8941    1.0000 </r>
       <r>   -2.0174    1.0000 </r>
       <r>   -1.6668    1.0000 </r>
       <r>   -1.5234    1.0000 </r>
       <r>   -1.2058    1.0000 </r>
       <r>   -0.8778    1.0000 </r>
       <r>   -0.4130    1.0000 </r>
       <r>   -0.3839    1.0000 </r>
       <r>   -0.2605    1.0000 </r>
       <r>    0.1904    1.0000 </r>
       <r>    0.3764    1.0000 </r>
       <r>    0.7251    1.0000 </r>
       <r>    1.0399    1.0000 </r>
       <r>    7.8801    0.0000 </r>
       <r>   10.3070    0.0000 </r>
       <r>   10.5359    0.0000 </r>
       <r>   10.6544    0.0000 </r>
       <r>   11.2303    0.0000 </r>
       <r>   12.0211    0.0000 </r>
      </set>
      <set comment="kpoint 14">
       <r>  -18.0758    1.0000 </r>
       <r>  -17.2966    1.0000 </r>
       <r>  -16.6874    1.0000 </r>
       <r>  -16.2296    1.0000 </r>
       <r>  -16.2041    1.0000 </r>
       <r>  -16.1657    1.0000 </r>
       <r>   -7.4878    1.0000 </r>
       <r>   -6.3314    1.0000 </r>
       <r>   -4.8882    1.0000 </r>
       <r>   -4.3428    1.0000 </r>
       <r>   -4.0735    1.0000 </r>
       <r>   -3.8620    1.0000 </r>
       <r>   -2.0961    1.0000 </r>
       <r>   -1.6499    1.0000 </r>
       <r>   -1.5313    1.0000 </r>
       <r>   -1.2593    1.0000 </r>
       <r>   -0.9441    1.0000 </r>
       <r>   -0.4948    1.0000 </r>
       <r>   -0.4134    1.0000 </r>
       <r>   -0.1325    1.0000 </r>
       <r>    0.1767    1.0000 </r>
       <r>    0.3073    1.0000 </r>
       <r>    0.7110    1.0000 </r>
       <r>    1.0280    1.0000 </r>
       <r>    8.5207    0.0000 </r>
       <r>   10.3265    0.0000 </r>
       <r>   10.7364    0.0000 </r>
       <r>   10.8861    0.0000 </r>
       <r>   11.3505    0.0000 </r>
       <r>   11.7138    0.0000 </r>
      </set>
      <set comment="kpoint 15">
       <r>  -17.8617    1.0000 </r>
       <r>  -17.3908    1.0000 </r>
       <r>  -16.8279    1.0000 </r>
       <r>  -16.2486    1.0000 </r>
       <r>  -16.2242    1.0000 </r>
       <r>  -16.1779    1.0000 </r>
       <r>   -7.2857    1.0000 </r>
       <r>   -6.1903    1.0000 </r>
       <r>   -5.1865    1.0000 </r>
       <r>   -4.3209    1.0000 </r>
       <r>   -4.0736    1.0000 </r>
       <r>   -3.6913    1.0000 </r>
       <r>   -2.0921    1.0000 </r>
       <r>   -1.8145    1.0000 </r>
       <r>   -1.5887    1.0000 </r>
       <r>   -1.1324    1.0000 </r>
       <r>   -0.8997    1.0000 </r>
       <r>   -0.7074    1.0000 </r>
       <r>   -0.4213    1.0000 </r>
       <r>   -0.1386    1.0000 </r>
       <r>    0.1213    1.0000 </r>
       <r>    0.3738    1.0000 </r>
       <r>    0.7376    1.0000 </r>
       <r>    0.9703    1.0000 </r>
       <r>    9.4551    0.0000 </r>
       <r>   10.4446    0.0000 </r>
       <r>   10.6042    0.0000 </r>
       <r>   11.2068    0.0000 </r>
       <r>   11.4305    0.0000 </r>
       <r>   11.6904    0.0000 </r>
      </set>
      <set comment="kpoint 16">
       <r>  -17.8644    1.0000 </r>
       <r>  -17.3815    1.0000 </r>
       <r>  -16.8396    1.0000 </r>
       <r>  -16.2437    1.0000 </r>
       <r>  -16.2228    1.0000 </r>
       <r>  -16.1789    1.0000 </r>
       <r>   -7.2869    1.0000 </r>
       <r>   -6.1915    1.0000 </r>
       <r>   -5.1862    1.0000 </r>
       <r>   -4.3302    1.0000 </r>
       <r>   -4.0674    1.0000 </r>
       <r>   -3.6765    1.0000 </r>
       <r>   -2.0563    1.0000 </r>
       <r>   -1.8412    1.0000 </r>
       <r>   -1.6070    1.0000 </r>
       <r>   -1.1860    1.0000 </r>
       <r>   -0.9118    1.0000 </r>
       <r>   -0.6732    1.0000 </r>
       <r>   -0.3237    1.0000 </r>
       <r>   -0.1867    1.0000 </r>
       <r>    0.0717    1.0000 </r>
       <r>    0.4553    1.0000 </r>
       <r>    0.6509    1.0000 </r>
       <r>    1.0065    1.0000 </r>
       <r>    9.4448    0.0000 </r>
       <r>   10.3530    0.0000 </r>
       <r>   10.9104    0.0000 </r>
       <r>   11.0642    0.0000 </r>
       <r>   11.4530    0.0000 </r>
       <r>   11.7593    0.0000 </r>
      </set>
      <set comment="kpoint 17">
       <r>  -17.7366    1.0000 </r>
       <r>  -17.4750    1.0000 </r>
       <r>  -16.8784    1.0000 </r>
       <r>  -16.2431    1.0000 </r>
       <r>  -16.2405    1.0000 </r>
       <r>  -16.1812    1.0000 </r>
       <r>   -7.2412    1.0000 </r>
       <r>   -5.9352    1.0000 </r>
       <r>   -5.5188    1.0000 </r>
       <r>   -4.2984    1.0000 </r>
       <r>   -4.0631    1.0000 </r>
       <r>   -3.6185    1.0000 </r>
       <r>   -2.0601    1.0000 </r>
       <r>   -1.7566    1.0000 </r>
       <r>   -1.7533    1.0000 </r>
       <r>   -0.9684    1.0000 </r>
       <r>   -0.9125    1.0000 </r>
       <r>   -0.8460    1.0000 </r>
       <r>   -0.3638    1.0000 </r>
       <r>   -0.2081    1.0000 </r>
       <r>    0.0260    1.0000 </r>
       <r>    0.5732    1.0000 </r>
       <r>    0.6188    1.0000 </r>
       <r>    0.9654    1.0000 </r>
       <r>   10.0540    0.0000 </r>
       <r>   10.2545    0.0000 </r>
       <r>   10.6633    0.0000 </r>
       <r>   11.3704    0.0000 </r>
       <r>   11.4370    0.0000 </r>
       <r>   11.5262    0.0000 </r>
      </set>
      <set comment="kpoint 18">
       <r>  -18.0666    1.0000 </r>
       <r>  -17.7159    1.0000 </r>
       <r>  -16.2241    1.0000 </r>
       <r>  -16.1922    1.0000 </r>
       <r>  -16.1820    1.0000 </r>
       <r>  -16.1285    1.0000 </r>
       <r>   -8.2298    1.0000 </r>
       <r>   -5.5310    1.0000 </r>
       <r>   -4.8813    1.0000 </r>
       <r>   -4.5348    1.0000 </r>
       <r>   -4.5027    1.0000 </r>
       <r>   -3.6334    1.0000 </r>
       <r>   -1.7861    1.0000 </r>
       <r>   -1.5556    1.0000 </r>
       <r>   -1.5129    1.0000 </r>
       <r>   -1.0231    1.0000 </r>
       <r>   -0.8459    1.0000 </r>
       <r>   -0.7473    1.0000 </r>
       <r>   -0.6368    1.0000 </r>
       <r>   -0.4600    1.0000 </r>
       <r>   -0.0926    1.0000 </r>
       <r>    0.7633    1.0000 </r>
       <r>    0.9791    1.0000 </r>
       <r>    0.9799    1.0000 </r>
       <r>    8.4950    0.0000 </r>
       <r>    9.6461    0.0000 </r>
       <r>   10.1999    0.0000 </r>
       <r>   10.5271    0.0000 </r>
       <r>   11.2515    0.0000 </r>
       <r>   11.6912    0.0000 </r>
      </set>
      <set comment="kpoint 19">
       <r>  -18.0047    1.0000 </r>
       <r>  -17.6742    1.0000 </r>
       <r>  -16.3454    1.0000 </r>
       <r>  -16.2134    1.0000 </r>
       <r>  -16.1898    1.0000 </r>
       <r>  -16.1429    1.0000 </r>
       <r>   -8.0301    1.0000 </r>
       <r>   -5.6356    1.0000 </r>
       <r>   -5.0496    1.0000 </r>
       <r>   -4.4345    1.0000 </r>
       <r>   -4.3370    1.0000 </r>
       <r>   -3.6903    1.0000 </r>
       <r>   -1.9261    1.0000 </r>
       <r>   -1.6443    1.0000 </r>
       <r>   -1.4951    1.0000 </r>
       <r>   -1.1216    1.0000 </r>
       <r>   -0.9445    1.0000 </r>
       <r>   -0.5716    1.0000 </r>
       <r>   -0.5244    1.0000 </r>
       <r>   -0.3230    1.0000 </r>
       <r>   -0.0195    1.0000 </r>
       <r>    0.6516    1.0000 </r>
       <r>    0.9044    1.0000 </r>
       <r>    0.9343    1.0000 </r>
       <r>    8.7735    0.0000 </r>
       <r>    9.7826    0.0000 </r>
       <r>   10.3720    0.0000 </r>
       <r>   10.5679    0.0000 </r>
       <r>   11.3114    0.0000 </r>
       <r>   11.6860    0.0000 </r>
      </set>
      <set comment="kpoint 20">
       <r>  -17.8764    1.0000 </r>
       <r>  -17.5381    1.0000 </r>
       <r>  -16.6581    1.0000 </r>
       <r>  -16.2541    1.0000 </r>
       <r>  -16.1964    1.0000 </r>
       <r>  -16.1654    1.0000 </r>
       <r>   -7.5441    1.0000 </r>
       <r>   -5.9351    1.0000 </r>
       <r>   -5.2330    1.0000 </r>
       <r>   -4.3153    1.0000 </r>
       <r>   -4.0616    1.0000 </r>
       <r>   -3.8258    1.0000 </r>
       <r>   -2.1062    1.0000 </r>
       <r>   -1.9232    1.0000 </r>
       <r>   -1.3510    1.0000 </r>
       <r>   -1.1856    1.0000 </r>
       <r>   -0.9449    1.0000 </r>
       <r>   -0.4862    1.0000 </r>
       <r>   -0.3532    1.0000 </r>
       <r>   -0.1438    1.0000 </r>
       <r>    0.1199    1.0000 </r>
       <r>    0.4557    1.0000 </r>
       <r>    0.6812    1.0000 </r>
       <r>    0.8791    1.0000 </r>
       <r>    9.4988    0.0000 </r>
       <r>   10.0804    0.0000 </r>
       <r>   10.6259    0.0000 </r>
       <r>   10.7986    0.0000 </r>
       <r>   11.5528    0.0000 </r>
       <r>   11.8651    0.0000 </r>
      </set>
      <set comment="kpoint 21">
       <r>  -17.8203    1.0000 </r>
       <r>  -17.3739    1.0000 </r>
       <r>  -16.9062    1.0000 </r>
       <r>  -16.2713    1.0000 </r>
       <r>  -16.1986    1.0000 </r>
       <r>  -16.1753    1.0000 </r>
       <r>   -7.1895    1.0000 </r>
       <r>   -6.2084    1.0000 </r>
       <r>   -5.2843    1.0000 </r>
       <r>   -4.2866    1.0000 </r>
       <r>   -3.9223    1.0000 </r>
       <r>   -3.8892    1.0000 </r>
       <r>   -2.1159    1.0000 </r>
       <r>   -2.0869    1.0000 </r>
       <r>   -1.3623    1.0000 </r>
       <r>   -1.1066    1.0000 </r>
       <r>   -0.9532    1.0000 </r>
       <r>   -0.5143    1.0000 </r>
       <r>   -0.2116    1.0000 </r>
       <r>   -0.0660    1.0000 </r>
       <r>    0.1276    1.0000 </r>
       <r>    0.4105    1.0000 </r>
       <r>    0.4670    1.0000 </r>
       <r>    0.9074    1.0000 </r>
       <r>    9.9971    0.0000 </r>
       <r>   10.3843    0.0000 </r>
       <r>   10.7486    0.0000 </r>
       <r>   11.0599    0.0000 </r>
       <r>   11.4681    0.0000 </r>
       <r>   11.8086    0.0000 </r>
      </set>
      <set comment="kpoint 22">
       <r>  -17.8821    1.0000 </r>
       <r>  -17.5258    1.0000 </r>
       <r>  -16.6758    1.0000 </r>
       <r>  -16.2470    1.0000 </r>
       <r>  -16.1882    1.0000 </r>
       <r>  -16.1695    1.0000 </r>
       <r>   -7.5459    1.0000 </r>
       <r>   -5.9398    1.0000 </r>
       <r>   -5.2272    1.0000 </r>
       <r>   -4.3361    1.0000 </r>
       <r>   -4.0623    1.0000 </r>
       <r>   -3.7869    1.0000 </r>
       <r>   -2.0832    1.0000 </r>
       <r>   -1.9464    1.0000 </r>
       <r>   -1.3209    1.0000 </r>
       <r>   -1.2567    1.0000 </r>
       <r>   -1.0058    1.0000 </r>
       <r>   -0.4126    1.0000 </r>
       <r>   -0.3020    1.0000 </r>
       <r>   -0.1125    1.0000 </r>
       <r>    0.1314    1.0000 </r>
       <r>    0.3257    1.0000 </r>
       <r>    0.6300    1.0000 </r>
       <r>    0.9783    1.0000 </r>
       <r>    9.3812    0.0000 </r>
       <r>   10.3557    0.0000 </r>
       <r>   10.5566    0.0000 </r>
       <r>   11.0703    0.0000 </r>
       <r>   11.2121    0.0000 </r>
       <r>   11.6790    0.0000 </r>
      </set>
      <set comment="kpoint 23">
       <r>  -18.0060    1.0000 </r>
       <r>  -17.6719    1.0000 </r>
       <r>  -16.3554    1.0000 </r>
       <r>  -16.2106    1.0000 </r>
       <r>  -16.1819    1.0000 </r>
       <r>  -16.1444    1.0000 </r>
       <r>   -8.0306    1.0000 </r>
       <r>   -5.6369    1.0000 </r>
       <r>   -5.0490    1.0000 </r>
       <r>   -4.4308    1.0000 </r>
       <r>   -4.3455    1.0000 </r>
       <r>   -3.6789    1.0000 </r>
       <r>   -1.9193    1.0000 </r>
       <r>   -1.6415    1.0000 </r>
       <r>   -1.4927    1.0000 </r>
       <r>   -1.1505    1.0000 </r>
       <r>   -0.9766    1.0000 </r>
       <r>   -0.5690    1.0000 </r>
       <r>   -0.4523    1.0000 </r>
       <r>   -0.3475    1.0000 </r>
       <r>   -0.0193    1.0000 </r>
       <r>    0.6497    1.0000 </r>
       <r>    0.8145    1.0000 </r>
       <r>    1.0198    1.0000 </r>
       <r>    8.7476    0.0000 </r>
       <r>    9.8378    0.0000 </r>
       <r>   10.3310    0.0000 </r>
       <r>   10.6862    0.0000 </r>
       <r>   11.2025    0.0000 </r>
       <r>   11.6536    0.0000 </r>
      </set>
      <set comment="kpoint 24">
       <r>  -17.9094    1.0000 </r>
       <r>  -17.5815    1.0000 </r>
       <r>  -16.5717    1.0000 </r>
       <r>  -16.2383    1.0000 </r>
       <r>  -16.1922    1.0000 </r>
       <r>  -16.1664    1.0000 </r>
       <r>   -7.6816    1.0000 </r>
       <r>   -5.8268    1.0000 </r>
       <r>   -5.2294    1.0000 </r>
       <r>   -4.3139    1.0000 </r>
       <r>   -4.1535    1.0000 </r>
       <r>   -3.7715    1.0000 </r>
       <r>   -2.0621    1.0000 </r>
       <r>   -1.8416    1.0000 </r>
       <r>   -1.3890    1.0000 </r>
       <r>   -1.2462    1.0000 </r>
       <r>   -0.9375    1.0000 </r>
       <r>   -0.4989    1.0000 </r>
       <r>   -0.3573    1.0000 </r>
       <r>   -0.1482    1.0000 </r>
       <r>    0.0862    1.0000 </r>
       <r>    0.4549    1.0000 </r>
       <r>    0.7411    1.0000 </r>
       <r>    0.9061    1.0000 </r>
       <r>    9.2301    0.0000 </r>
       <r>   10.0923    0.0000 </r>
       <r>   10.5302    0.0000 </r>
       <r>   10.9157    0.0000 </r>
       <r>   11.3045    0.0000 </r>
       <r>   11.6591    0.0000 </r>
      </set>
      <set comment="kpoint 25">
       <r>  -17.8138    1.0000 </r>
       <r>  -17.3992    1.0000 </r>
       <r>  -16.8747    1.0000 </r>
       <r>  -16.2690    1.0000 </r>
       <r>  -16.2071    1.0000 </r>
       <r>  -16.1825    1.0000 </r>
       <r>   -7.1831    1.0000 </r>
       <r>   -6.1629    1.0000 </r>
       <r>   -5.3739    1.0000 </r>
       <r>   -4.2329    1.0000 </r>
       <r>   -3.9666    1.0000 </r>
       <r>   -3.8851    1.0000 </r>
       <r>   -2.1542    1.0000 </r>
       <r>   -1.9571    1.0000 </r>
       <r>   -1.4626    1.0000 </r>
       <r>   -1.0964    1.0000 </r>
       <r>   -0.8811    1.0000 </r>
       <r>   -0.6388    1.0000 </r>
       <r>   -0.1555    1.0000 </r>
       <r>   -0.0367    1.0000 </r>
       <r>    0.1906    1.0000 </r>
       <r>    0.3668    1.0000 </r>
       <r>    0.5565    1.0000 </r>
       <r>    0.7856    1.0000 </r>
       <r>    9.9209    0.0000 </r>
       <r>   10.4285    0.0000 </r>
       <r>   10.7259    0.0000 </r>
       <r>   11.1313    0.0000 </r>
       <r>   11.5036    0.0000 </r>
       <r>   11.6621    0.0000 </r>
      </set>
      <set comment="kpoint 26">
       <r>  -17.8160    1.0000 </r>
       <r>  -17.3922    1.0000 </r>
       <r>  -16.8826    1.0000 </r>
       <r>  -16.2662    1.0000 </r>
       <r>  -16.2061    1.0000 </r>
       <r>  -16.1832    1.0000 </r>
       <r>   -7.1839    1.0000 </r>
       <r>   -6.1644    1.0000 </r>
       <r>   -5.3717    1.0000 </r>
       <r>   -4.2418    1.0000 </r>
       <r>   -3.9694    1.0000 </r>
       <r>   -3.8679    1.0000 </r>
       <r>   -2.1482    1.0000 </r>
       <r>   -1.9627    1.0000 </r>
       <r>   -1.4698    1.0000 </r>
       <r>   -1.0944    1.0000 </r>
       <r>   -0.9285    1.0000 </r>
       <r>   -0.5901    1.0000 </r>
       <r>   -0.1611    1.0000 </r>
       <r>    0.0220    1.0000 </r>
       <r>    0.1852    1.0000 </r>
       <r>    0.2944    1.0000 </r>
       <r>    0.5353    1.0000 </r>
       <r>    0.8294    1.0000 </r>
       <r>    9.8640    0.0000 </r>
       <r>   10.5289    0.0000 </r>
       <r>   10.7971    0.0000 </r>
       <r>   11.1222    0.0000 </r>
       <r>   11.3048    0.0000 </r>
       <r>   11.6801    0.0000 </r>
      </set>
      <set comment="kpoint 27">
       <r>  -17.7803    1.0000 </r>
       <r>  -17.2633    1.0000 </r>
       <r>  -17.0437    1.0000 </r>
       <r>  -16.2769    1.0000 </r>
       <r>  -16.2195    1.0000 </r>
       <r>  -16.1917    1.0000 </r>
       <r>   -6.8689    1.0000 </r>
       <r>   -6.3843    1.0000 </r>
       <r>   -5.4822    1.0000 </r>
       <r>   -4.1831    1.0000 </r>
       <r>   -3.9265    1.0000 </r>
       <r>   -3.9255    1.0000 </r>
       <r>   -2.1865    1.0000 </r>
       <r>   -1.7464    1.0000 </r>
       <r>   -1.7309    1.0000 </r>
       <r>   -0.8883    1.0000 </r>
       <r>   -0.8647    1.0000 </r>
       <r>   -0.8581    1.0000 </r>
       <r>    0.0139    1.0000 </r>
       <r>    0.0305    1.0000 </r>
       <r>    0.1960    1.0000 </r>
       <r>    0.4191    1.0000 </r>
       <r>    0.4408    1.0000 </r>
       <r>    0.6477    1.0000 </r>
       <r>   10.1463    0.0000 </r>
       <r>   10.6999    0.0000 </r>
       <r>   10.9238    0.0000 </r>
       <r>   11.2089    0.0000 </r>
       <r>   11.3140    0.0000 </r>
       <r>   11.3819    0.0000 </r>
      </set>
     </set>
    </set>
   </array>
  </eigenvalues>
  <separator name="orbital magnetization" >
   <v name="MAGDIPOLOUT">      0.00000000      0.00000000      0.00000000</v>
  </separator>
  <dos>
   <i name="efermi">      1.17226575 </i>
   <total>
    <array>
     <dimension dim="1">gridpoints</dimension>
     <dimension dim="2">spin</dimension>
     <field>energy</field>
     <field>total</field>
     <field>integrated</field>
     <set>
      <set comment="spin 1">
       <r>   -20.3723     0.0000     0.0000 </r>
       <r>   -20.2554     0.0000     0.0000 </r>
       <r>   -20.1385     0.0000     0.0000 </r>
       <r>   -20.0215     0.0000     0.0000 </r>
       <r>   -19.9046     0.0000     0.0000 </r>
       <r>   -19.7877     0.0000     0.0000 </r>
       <r>   -19.6707     0.0000     0.0000 </r>
       <r>   -19.5538     0.0000     0.0000 </r>
       <r>   -19.4369     0.0000     0.0000 </r>
       <r>   -19.3199     0.0000     0.0000 </r>
       <r>   -19.2030     0.0000     0.0000 </r>
       <r>   -19.0861     0.0000     0.0000 </r>
       <r>   -18.9691     0.0000     0.0000 </r>
       <r>   -18.8522     0.0000     0.0000 </r>
       <r>   -18.7353     0.0000     0.0000 </r>
       <r>   -18.6183     0.0000     0.0000 </r>
       <r>   -18.5014     0.0000     0.0000 </r>
       <r>   -18.3845     0.0000     0.0000 </r>
       <r>   -18.2676     1.1121     0.0471 </r>
       <r>   -18.1506     1.8217     0.2127 </r>
       <r>   -18.0337     3.4107     0.4932 </r>
       <r>   -17.9168     5.1158     0.9932 </r>
       <r>   -17.7998     4.7111     1.8945 </r>
       <r>   -17.6829     1.3577     2.0198 </r>
       <r>   -17.5660     1.7501     2.1750 </r>
       <r>   -17.4490     4.3055     2.4889 </r>
       <r>   -17.3321     4.7594     3.4797 </r>
       <r>   -17.2152     1.5992     3.7950 </r>
       <r>   -17.0982     0.7305     3.9226 </r>
       <r>   -16.9813     0.7933     3.9954 </r>
       <r>   -16.8644     5.1155     4.2564 </r>
       <r>   -16.7474     4.8059     5.2241 </r>
       <r>   -16.6305     2.2328     5.5893 </r>
       <r>   -16.5136     1.3539     5.7910 </r>
       <r>   -16.3967     0.8271     5.9197 </r>
       <r>   -16.2797     0.2962     5.9923 </r>
       <r>   -16.1628    29.8584    11.5270 </r>
       <r>   -16.0459     0.0000    12.0000 </r>
       <r>   -15.9289     0.0000    12.0000 </r>
       <r>   -15.8120     0.0000    12.0000 </r>
       <r>   -15.6951     0.0000    12.0000 </r>
       <r>   -15.5781     0.0000    12.0000 </r>
       <r>   -15.4612     0.0000    12.0000 </r>
       <r>   -15.3443     0.0000    12.0000 </r>
       <r>   -15.2273     0.0000    12.0000 </r>
       <r>   -15.1104     0.0000    12.0000 </r>
       <r>   -14.9935     0.0000    12.0000 </r>
       <r>   -14.8765     0.0000    12.0000 </r>
       <r>   -14.7596     0.0000    12.0000 </r>
       <r>   -14.6427     0.0000    12.0000 </r>
       <r>   -14.5258     0.0000    12.0000 </r>
       <r>   -14.4088     0.0000    12.0000 </r>
       <r>   -14.2919     0.0000    12.0000 </r>
       <r>   -14.1750     0.0000    12.0000 </r>
       <r>   -14.0580     0.0000    12.0000 </r>
       <r>   -13.9411     0.0000    12.0000 </r>
       <r>   -13.8242     0.0000    12.0000 </r>
       <r>   -13.7072     0.0000    12.0000 </r>
       <r>   -13.5903     0.0000    12.0000 </r>
       <r>   -13.4734     0.0000    12.0000 </r>
       <r>   -13.3564     0.0000    12.0000 </r>
       <r>   -13.2395     0.0000    12.0000 </r>
       <r>   -13.1226     0.0000    12.0000 </r>
       <r>   -13.0056     0.0000    12.0000 </r>
       <r>   -12.8887     0.0000    12.0000 </r>
       <r>   -12.7718     0.0000    12.0000 </r>
       <r>   -12.6549     0.0000    12.0000 </r>
       <r>   -12.5379     0.0000    12.0000 </r>
       <r>   -12.4210     0.0000    12.0000 </r>
       <r>   -12.3041     0.0000    12.0000 </r>
       <r>   -12.1871     0.0000    12.0000 </r>
       <r>   -12.0702     0.0000    12.0000 </r>
       <r>   -11.9533     0.0000    12.0000 </r>
       <r>   -11.8363     0.0000    12.0000 </r>
       <r>   -11.7194     0.0000    12.0000 </r>
       <r>   -11.6025     0.0000    12.0000 </r>
       <r>   -11.4855     0.0000    12.0000 </r>
       <r>   -11.3686     0.0000    12.0000 </r>
       <r>   -11.2517     0.0000    12.0000 </r>
       <r>   -11.1347     0.0000    12.0000 </r>
       <r>   -11.0178     0.0000    12.0000 </r>
       <r>   -10.9009     0.0000    12.0000 </r>
       <r>   -10.7840     0.0000    12.0000 </r>
       <r>   -10.6670     0.0000    12.0000 </r>
       <r>   -10.5501     0.0000    12.0000 </r>
       <r>   -10.4332     0.0000    12.0000 </r>
       <r>   -10.3162     0.0000    12.0000 </r>
       <r>   -10.1993     0.0000    12.0000 </r>
       <r>   -10.0824     0.0000    12.0000 </r>
       <r>    -9.9654     0.0000    12.0000 </r>
       <r>    -9.8485     0.0000    12.0000 </r>
       <r>    -9.7316     0.0000    12.0000 </r>
       <r>    -9.6146     0.0000    12.0000 </r>
       <r>    -9.4977     0.0000    12.0000 </r>
       <r>    -9.3808     0.0000    12.0000 </r>
       <r>    -9.2638     0.0000    12.0000 </r>
       <r>    -9.1469     0.0000    12.0000 </r>
       <r>    -9.0300     0.0000    12.0000 </r>
       <r>    -8.9131     0.0000    12.0000 </r>
       <r>    -8.7961     0.0000    12.0000 </r>
       <r>    -8.6792     0.0000    12.0000 </r>
       <r>    -8.5623     0.0000    12.0000 </r>
       <r>    -8.4453     0.0000    12.0000 </r>
       <r>    -8.3284     0.0000    12.0000 </r>
       <r>    -8.2115     0.0323    12.0003 </r>
       <r>    -8.0945     0.3141    12.0193 </r>
       <r>    -7.9776     0.4668    12.0683 </r>
       <r>    -7.8607     0.6801    12.1350 </r>
       <r>    -7.7437     0.8839    12.2271 </r>
       <r>    -7.6268     1.2246    12.3476 </r>
       <r>    -7.5099     1.7066    12.5171 </r>
       <r>    -7.3929     3.2052    12.7806 </r>
       <r>    -7.2760     4.7472    13.5654 </r>
       <r>    -7.1591     0.8770    13.8963 </r>
       <r>    -7.0422     0.4582    13.9721 </r>
       <r>    -6.9252     0.2455    14.0117 </r>
       <r>    -6.8083     0.2702    14.0386 </r>
       <r>    -6.6914     0.4187    14.0786 </r>
       <r>    -6.5744     0.6584    14.1396 </r>
       <r>    -6.4575     1.1227    14.2414 </r>
       <r>    -6.3406     1.8956    14.4140 </r>
       <r>    -6.2236     5.6219    14.8329 </r>
       <r>    -6.1067     2.9277    15.3957 </r>
       <r>    -5.9898     1.6147    15.6544 </r>
       <r>    -5.8728     0.9985    15.8014 </r>
       <r>    -5.7559     0.6728    15.8981 </r>
       <r>    -5.6390     0.4432    15.9624 </r>
       <r>    -5.5220     0.0713    16.0029 </r>
       <r>    -5.4051     1.6932    16.0852 </r>
       <r>    -5.2882     3.6209    16.3960 </r>
       <r>    -5.1713     2.8815    16.7770 </r>
       <r>    -5.0543     2.8901    17.1159 </r>
       <r>    -4.9374     2.1969    17.4183 </r>
       <r>    -4.8205     1.5202    17.6297 </r>
       <r>    -4.7035     1.1087    17.7820 </r>
       <r>    -4.5866     0.7637    17.8915 </r>
       <r>    -4.4697     1.2874    17.9841 </r>
       <r>    -4.3527    21.6694    18.7030 </r>
       <r>    -4.2358     8.6128    20.2294 </r>
       <r>    -4.1189     6.1059    21.0241 </r>
       <r>    -4.0019     4.7259    21.7456 </r>
       <r>    -3.8850     7.6770    22.2223 </r>
       <r>    -3.7681     7.2466    23.1414 </r>
       <r>    -3.6511     3.5173    23.7435 </r>
       <r>    -3.5342     0.5408    23.9872 </r>
       <r>    -3.4173     0.0000    24.0000 </r>
       <r>    -3.3004     0.0000    24.0000 </r>
       <r>    -3.1834     0.0000    24.0000 </r>
       <r>    -3.0665     0.0000    24.0000 </r>
       <r>    -2.9496     0.0000    24.0000 </r>
       <r>    -2.8326     0.0000    24.0000 </r>
       <r>    -2.7157     0.0000    24.0000 </r>
       <r>    -2.5988     0.0000    24.0000 </r>
       <r>    -2.4818     0.0000    24.0000 </r>
       <r>    -2.3649     0.0000    24.0000 </r>
       <r>    -2.2480     0.0000    24.0000 </r>
       <r>    -2.1310     8.1120    24.2050 </r>
       <r>    -2.0141     9.7657    25.6215 </r>
       <r>    -1.8972     5.4885    26.3603 </r>
       <r>    -1.7802     8.1678    27.1796 </r>
       <r>    -1.6633     6.1706    27.9501 </r>
       <r>    -1.5464    10.0788    28.7330 </r>
       <r>    -1.4295     5.4805    29.6937 </r>
       <r>    -1.3125     0.9440    30.0239 </r>
       <r>    -1.1956    16.1172    30.7121 </r>
       <r>    -1.0787     2.8408    31.8132 </r>
       <r>    -0.9617    12.7611    32.3524 </r>
       <r>    -0.8448     1.2582    33.8551 </r>
       <r>    -0.7279     3.1875    34.0978 </r>
       <r>    -0.6109     6.3218    34.7850 </r>
       <r>    -0.4940    12.1011    35.8514 </r>
       <r>    -0.3771     8.6642    37.1670 </r>
       <r>    -0.2601     4.7815    37.8049 </r>
       <r>    -0.1432    11.7432    38.6734 </r>
       <r>    -0.0263     6.5729    39.8700 </r>
       <r>     0.0907    11.1342    40.6278 </r>
       <r>     0.2076     0.0000    42.0000 </r>
       <r>     0.3245     8.9958    42.2991 </r>
       <r>     0.4414     4.9599    43.5715 </r>
       <r>     0.5584     4.2510    44.0796 </r>
       <r>     0.6753     6.5836    44.6690 </r>
       <r>     0.7922     9.9839    45.6945 </r>
       <r>     0.9092     6.9891    46.4937 </r>
       <r>     1.0261    11.2651    47.7272 </r>
       <r>     1.1430     0.0000    48.0000 </r>
       <r>     1.2600     0.0000    48.0000 </r>
       <r>     1.3769     0.0000    48.0000 </r>
       <r>     1.4938     0.0000    48.0000 </r>
       <r>     1.6108     0.0000    48.0000 </r>
       <r>     1.7277     0.0000    48.0000 </r>
       <r>     1.8446     0.0000    48.0000 </r>
       <r>     1.9616     0.0000    48.0000 </r>
       <r>     2.0785     0.0000    48.0000 </r>
       <r>     2.1954     0.0000    48.0000 </r>
       <r>     2.3123     0.0000    48.0000 </r>
       <r>     2.4293     0.0000    48.0000 </r>
       <r>     2.5462     0.0000    48.0000 </r>
       <r>     2.6631     0.0000    48.0000 </r>
       <r>     2.7801     0.0000    48.0000 </r>
       <r>     2.8970     0.0000    48.0000 </r>
       <r>     3.0139     0.0000    48.0000 </r>
       <r>     3.1309     0.0000    48.0000 </r>
       <r>     3.2478     0.0000    48.0000 </r>
       <r>     3.3647     0.0000    48.0000 </r>
       <r>     3.4817     0.0000    48.0000 </r>
       <r>     3.5986     0.0000    48.0000 </r>
       <r>     3.7155     0.0000    48.0000 </r>
       <r>     3.8325     0.0000    48.0000 </r>
       <r>     3.9494     0.0000    48.0000 </r>
       <r>     4.0663     0.0000    48.0000 </r>
       <r>     4.1832     0.0000    48.0000 </r>
       <r>     4.3002     0.0000    48.0000 </r>
       <r>     4.4171     0.0000    48.0000 </r>
       <r>     4.5340     0.0000    48.0000 </r>
       <r>     4.6510     0.0000    48.0000 </r>
       <r>     4.7679     0.0000    48.0000 </r>
       <r>     4.8848     0.0000    48.0000 </r>
       <r>     5.0018     0.0000    48.0000 </r>
       <r>     5.1187     0.0000    48.0000 </r>
       <r>     5.2356     0.0000    48.0000 </r>
       <r>     5.3526     0.0000    48.0000 </r>
       <r>     5.4695     0.0000    48.0000 </r>
       <r>     5.5864     0.0000    48.0000 </r>
       <r>     5.7034     0.0000    48.0000 </r>
       <r>     5.8203     0.0000    48.0000 </r>
       <r>     5.9372     0.0000    48.0000 </r>
       <r>     6.0541     0.0000    48.0000 </r>
       <r>     6.1711     0.0000    48.0000 </r>
       <r>     6.2880     0.0000    48.0000 </r>
       <r>     6.4049     0.0000    48.0000 </r>
       <r>     6.5219     0.0000    48.0000 </r>
       <r>     6.6388     0.0000    48.0000 </r>
       <r>     6.7557     0.0000    48.0000 </r>
       <r>     6.8727     0.0000    48.0000 </r>
       <r>     6.9896     0.0000    48.0000 </r>
       <r>     7.1065     0.0000    48.0000 </r>
       <r>     7.2235     0.0108    48.0004 </r>
       <r>     7.3404     0.0488    48.0036 </r>
       <r>     7.4573     0.1144    48.0129 </r>
       <r>     7.5743     0.2030    48.0315 </r>
       <r>     7.6912     0.2509    48.0583 </r>
       <r>     7.8081     0.2804    48.0895 </r>
       <r>     7.9250     0.3052    48.1234 </r>
       <r>     8.0420     0.3520    48.1618 </r>
       <r>     8.1589     0.4015    48.2058 </r>
       <r>     8.2758     0.4537    48.2558 </r>
       <r>     8.3928     0.5082    48.3120 </r>
       <r>     8.5097     0.5782    48.3748 </r>
       <r>     8.6266     0.7361    48.4517 </r>
       <r>     8.7436     0.8903    48.5468 </r>
       <r>     8.8605     0.8447    48.6437 </r>
       <r>     8.9774     0.9074    48.7461 </r>
       <r>     9.0944     0.9721    48.8560 </r>
       <r>     9.2113     1.0389    48.9736 </r>
       <r>     9.3282     1.4389    49.1108 </r>
       <r>     9.4452     1.5155    49.2877 </r>
       <r>     9.5621     1.2625    49.4469 </r>
       <r>     9.6790     1.3007    49.5931 </r>
       <r>     9.7959     1.5209    49.7598 </r>
       <r>     9.9129     2.1137    49.9532 </r>
       <r>    10.0298     1.2038    50.1433 </r>
       <r>    10.1467     1.3490    50.2779 </r>
       <r>    10.2637     3.8248    50.5584 </r>
       <r>    10.3806    11.8272    51.4887 </r>
       <r>    10.4975     3.9562    52.1997 </r>
       <r>    10.6145     7.3025    52.8040 </r>
       <r>    10.7314     7.4164    53.7198 </r>
       <r>    10.8483     3.2704    54.3641 </r>
       <r>    10.9653     3.2993    54.6809 </r>
       <r>    11.0822     7.7690    55.2834 </r>
       <r>    11.1991     2.7070    55.9875 </r>
       <r>    11.3161     6.1224    56.5867 </r>
       <r>    11.4330     6.9526    57.3539 </r>
       <r>    11.5499     2.3114    58.0037 </r>
       <r>    11.6668    15.4143    58.3125 </r>
       <r>    11.7838     3.5879    59.5476 </r>
       <r>    11.9007     1.0545    59.7682 </r>
       <r>    12.0176     0.6083    59.8599 </r>
       <r>    12.1346     0.4328    59.9206 </r>
       <r>    12.2515     0.2704    59.9616 </r>
       <r>    12.3684     0.1352    59.9847 </r>
       <r>    12.4854     0.0580    59.9957 </r>
       <r>    12.6023     0.0129    59.9995 </r>
       <r>    12.7192     0.0000    60.0000 </r>
       <r>    12.8362     0.0000    60.0000 </r>
       <r>    12.9531     0.0000    60.0000 </r>
       <r>    13.0700     0.0000    60.0000 </r>
       <r>    13.1870     0.0000    60.0000 </r>
       <r>    13.3039     0.0000    60.0000 </r>
       <r>    13.4208     0.0000    60.0000 </r>
       <r>    13.5377     0.0000    60.0000 </r>
       <r>    13.6547     0.0000    60.0000 </r>
       <r>    13.7716     0.0000    60.0000 </r>
       <r>    13.8885     0.0000    60.0000 </r>
       <r>    14.0055     0.0000    60.0000 </r>
       <r>    14.1224     0.0000    60.0000 </r>
       <r>    14.2393     0.0000    60.0000 </r>
       <r>    14.3563     0.0000    60.0000 </r>
       <r>    14.4732     0.0000    60.0000 </r>
       <r>    14.5901     0.0000    60.0000 </r>
       <r>    14.7071     0.0000    60.0000 </r>
      </set>
     </set>
    </array>
   </total>
  </dos>
 </calculation>
 <structure name="finalpos" >
  <crystal>
   <varray name="basis" >
    <v>       4.91380000       0.00000000       0.00000000 </v>
    <v>      -2.45690000       4.25547563       0.00000000 </v>
    <v>       0.00000000       0.00000000       5.40520000 </v>
   </varray>
   <i name="volume">    113.02573808 </i>
   <varray name="rec_basis" >
    <v>       0.20350849       0.11749568       0.00000000 </v>
    <v>       0.00000000       0.23499136       0.00000000 </v>
    <v>       0.00000000       0.00000000       0.18500703 </v>
   </varray>
  </crystal>
  <varray name="positions" >
   <v>       0.46980000       0.00000000       0.66666667 </v>
   <v>       0.53020000       0.53020000       0.00000000 </v>
   <v>       0.00000000       0.46980000       0.33333333 </v>
   <v>       0.41450000       0.26620000       0.78560000 </v>
   <v>       0.58550000       0.85170000       0.88106667 </v>
   <v>       0.14830000       0.73380000       0.54773333 </v>
   <v>       0.26620000       0.41450000       0.21440000 </v>
   <v>       0.85170000       0.58550000       0.11893333 </v>
   <v>       0.73380000       0.14830000       0.45226667 </v>
  </varray>
 </structure>
</modeling>
