   9   9   0   0
  0.1255842E+02  0.4913800E-09  0.4913800E-09  0.5405200E-09  0.5000000E-15
  1.000000000000000E-004
  CAR 
 unknown system                          
     14.62759199    -20.37247122  301      1.12340094      1.00000000
    -20.372  0.0000E+00  0.0000E+00
    -20.256  0.0000E+00  0.0000E+00
    -20.139  0.0000E+00  0.0000E+00
    -20.022  0.0000E+00  0.0000E+00
    -19.906  0.0000E+00  0.0000E+00
    -19.789  0.0000E+00  0.0000E+00
    -19.672  0.0000E+00  0.0000E+00
    -19.556  0.0000E+00  0.0000E+00
    -19.439  0.0000E+00  0.0000E+00
    -19.322  0.0000E+00  0.0000E+00
    -19.206  0.0000E+00  0.0000E+00
    -19.089  0.0000E+00  0.0000E+00
    -18.972  0.0000E+00  0.0000E+00
    -18.856  0.0000E+00  0.0000E+00
    -18.739  0.0000E+00  0.0000E+00
    -18.622  0.0000E+00  0.0000E+00
    -18.506  0.0000E+00  0.0000E+00
    -18.389  0.0000E+00  0.0000E+00
    -18.272  0.1073E+01  0.4189E-01
    -18.156  0.1779E+01  0.2037E+00
    -18.039  0.3267E+01  0.4756E+00
    -17.922  0.5026E+01  0.9651E+00
    -17.806  0.5673E+01  0.1864E+01
    -17.689  0.1130E+01  0.2012E+01
    -17.572  0.1701E+01  0.2164E+01
    -17.456  0.3991E+01  0.2461E+01
    -17.339  0.5286E+01  0.3445E+01
    -17.222  0.1687E+01  0.3783E+01
    -17.106  0.7616E+00  0.3917E+01
    -16.989  0.7377E+00  0.3989E+01
    -16.872  0.4684E+01  0.4217E+01
    -16.756  0.5245E+01  0.5183E+01
    -16.639  0.2321E+01  0.5570E+01
    -16.522  0.1384E+01  0.5779E+01
    -16.406  0.8683E+00  0.5912E+01
    -16.289  0.3569E+00  0.5989E+01
    -16.172  0.6079E+02  0.1112E+02
    -16.056  0.0000E+00  0.1200E+02
    -15.939  0.0000E+00  0.1200E+02
    -15.822  0.0000E+00  0.1200E+02
    -15.706  0.0000E+00  0.1200E+02
    -15.589  0.0000E+00  0.1200E+02
    -15.472  0.0000E+00  0.1200E+02
    -15.356  0.0000E+00  0.1200E+02
    -15.239  0.0000E+00  0.1200E+02
    -15.122  0.0000E+00  0.1200E+02
    -15.006  0.0000E+00  0.1200E+02
    -14.889  0.0000E+00  0.1200E+02
    -14.772  0.0000E+00  0.1200E+02
    -14.656  0.0000E+00  0.1200E+02
    -14.539  0.0000E+00  0.1200E+02
    -14.422  0.0000E+00  0.1200E+02
    -14.306  0.0000E+00  0.1200E+02
    -14.189  0.0000E+00  0.1200E+02
    -14.072  0.0000E+00  0.1200E+02
    -13.956  0.0000E+00  0.1200E+02
    -13.839  0.0000E+00  0.1200E+02
    -13.722  0.0000E+00  0.1200E+02
    -13.606  0.0000E+00  0.1200E+02
    -13.489  0.0000E+00  0.1200E+02
    -13.372  0.0000E+00  0.1200E+02
    -13.256  0.0000E+00  0.1200E+02
    -13.139  0.0000E+00  0.1200E+02
    -13.022  0.0000E+00  0.1200E+02
    -12.906  0.0000E+00  0.1200E+02
    -12.789  0.0000E+00  0.1200E+02
    -12.672  0.0000E+00  0.1200E+02
    -12.556  0.0000E+00  0.1200E+02
    -12.439  0.0000E+00  0.1200E+02
    -12.322  0.0000E+00  0.1200E+02
    -12.206  0.0000E+00  0.1200E+02
    -12.089  0.0000E+00  0.1200E+02
    -11.972  0.0000E+00  0.1200E+02
    -11.856  0.0000E+00  0.1200E+02
    -11.739  0.0000E+00  0.1200E+02
    -11.622  0.0000E+00  0.1200E+02
    -11.506  0.0000E+00  0.1200E+02
    -11.389  0.0000E+00  0.1200E+02
    -11.272  0.0000E+00  0.1200E+02
    -11.156  0.0000E+00  0.1200E+02
    -11.039  0.0000E+00  0.1200E+02
    -10.922  0.0000E+00  0.1200E+02
    -10.806  0.0000E+00  0.1200E+02
    -10.689  0.0000E+00  0.1200E+02
    -10.572  0.0000E+00  0.1200E+02
    -10.456  0.0000E+00  0.1200E+02
    -10.339  0.0000E+00  0.1200E+02
    -10.222  0.0000E+00  0.1200E+02
    -10.106  0.0000E+00  0.1200E+02
     -9.989  0.0000E+00  0.1200E+02
     -9.872  0.0000E+00  0.1200E+02
     -9.756  0.0000E+00  0.1200E+02
     -9.639  0.0000E+00  0.1200E+02
     -9.522  0.0000E+00  0.1200E+02
     -9.406  0.0000E+00  0.1200E+02
     -9.289  0.0000E+00  0.1200E+02
     -9.172  0.0000E+00  0.1200E+02
     -9.056  0.0000E+00  0.1200E+02
     -8.939  0.0000E+00  0.1200E+02
     -8.822  0.0000E+00  0.1200E+02
     -8.706  0.0000E+00  0.1200E+02
     -8.589  0.0000E+00  0.1200E+02
     -8.472  0.0000E+00  0.1200E+02
     -8.356  0.0000E+00  0.1200E+02
     -8.239  0.0000E+00  0.1200E+02
     -8.122  0.2357E+00  0.1201E+02
     -8.006  0.4206E+00  0.1206E+02
     -7.889  0.6259E+00  0.1212E+02
     -7.772  0.8406E+00  0.1220E+02
     -7.656  0.1125E+01  0.1231E+02
     -7.539  0.1564E+01  0.1247E+02
     -7.422  0.2582E+01  0.1270E+02
     -7.306  0.9443E+01  0.1333E+02
     -7.189  0.2958E+01  0.1383E+02
     -7.072  0.5432E+00  0.1396E+02
     -6.956  0.2853E+00  0.1400E+02
     -6.839  0.2363E+00  0.1403E+02
     -6.722  0.3767E+00  0.1407E+02
     -6.606  0.5744E+00  0.1412E+02
     -6.489  0.9750E+00  0.1421E+02
     -6.372  0.1648E+01  0.1436E+02
     -6.256  0.4493E+01  0.1467E+02
     -6.139  0.3413E+01  0.1529E+02
     -6.022  0.1907E+01  0.1560E+02
     -5.906  0.1120E+01  0.1577E+02
     -5.789  0.7552E+00  0.1587E+02
     -5.672  0.4983E+00  0.1595E+02
     -5.556  0.1891E+00  0.1600E+02
     -5.439  0.1095E+01  0.1604E+02
     -5.322  0.3057E+01  0.1628E+02
     -5.206  0.2978E+01  0.1668E+02
     -5.089  0.2903E+01  0.1702E+02
     -4.972  0.2444E+01  0.1734E+02
     -4.856  0.1666E+01  0.1757E+02
     -4.739  0.1218E+01  0.1774E+02
     -4.622  0.8671E+00  0.1786E+02
     -4.506  0.7944E+00  0.1795E+02
     -4.389  0.4698E+01  0.1819E+02
     -4.272  0.9912E+01  0.1990E+02
     -4.156  0.5843E+01  0.2081E+02
     -4.039  0.5553E+01  0.2156E+02
     -3.922  0.1605E+01  0.2210E+02
     -3.806  0.8237E+01  0.2285E+02
     -3.689  0.4261E+01  0.2359E+02
     -3.572  0.1813E+01  0.2394E+02
     -3.456  0.0000E+00  0.2400E+02
     -3.339  0.0000E+00  0.2400E+02
     -3.222  0.0000E+00  0.2400E+02
     -3.106  0.0000E+00  0.2400E+02
     -2.989  0.0000E+00  0.2400E+02
     -2.872  0.0000E+00  0.2400E+02
     -2.756  0.0000E+00  0.2400E+02
     -2.639  0.0000E+00  0.2400E+02
     -2.522  0.0000E+00  0.2400E+02
     -2.406  0.0000E+00  0.2400E+02
     -2.289  0.0000E+00  0.2400E+02
     -2.172  0.1808E+01  0.2401E+02
     -2.056  0.1317E+02  0.2514E+02
     -1.939  0.6017E+01  0.2612E+02
     -1.822  0.8088E+01  0.2680E+02
     -1.706  0.6374E+01  0.2769E+02
     -1.589  0.6681E+01  0.2838E+02
     -1.472  0.5781E+01  0.2944E+02
     -1.356  0.1713E+01  0.2998E+02
     -1.239  0.6547E+01  0.3021E+02
     -1.122  0.7167E+01  0.3157E+02
     -1.006  0.3559E+01  0.3200E+02
     -0.889  0.1091E+02  0.3367E+02
     -0.772  0.2298E+01  0.3398E+02
     -0.656  0.5903E+01  0.3452E+02
     -0.539  0.9889E+01  0.3534E+02
     -0.422  0.9713E+01  0.3662E+02
     -0.306  0.4739E+01  0.3759E+02
     -0.189  0.9130E+01  0.3817E+02
     -0.072  0.1084E+02  0.3948E+02
      0.044  0.5475E+01  0.4023E+02
      0.161  0.1355E+02  0.4171E+02
      0.278  0.2730E+01  0.4205E+02
      0.394  0.1248E+02  0.4317E+02
      0.511  0.4546E+01  0.4385E+02
      0.628  0.4712E+01  0.4439E+02
      0.744  0.9642E+01  0.4521E+02
      0.861  0.5106E+01  0.4621E+02
      0.978  0.1216E+02  0.4708E+02
      1.094  0.3513E-01  0.4800E+02
      1.211  0.0000E+00  0.4800E+02
      1.328  0.0000E+00  0.4800E+02
      1.444  0.0000E+00  0.4800E+02
      1.561  0.0000E+00  0.4800E+02
      1.678  0.0000E+00  0.4800E+02
      1.794  0.0000E+00  0.4800E+02
      1.911  0.0000E+00  0.4800E+02
      2.028  0.0000E+00  0.4800E+02
      2.144  0.0000E+00  0.4800E+02
      2.261  0.0000E+00  0.4800E+02
      2.378  0.0000E+00  0.4800E+02
      2.494  0.0000E+00  0.4800E+02
      2.611  0.0000E+00  0.4800E+02
      2.728  0.0000E+00  0.4800E+02
      2.844  0.0000E+00  0.4800E+02
      2.961  0.0000E+00  0.4800E+02
      3.078  0.0000E+00  0.4800E+02
      3.194  0.0000E+00  0.4800E+02
      3.311  0.0000E+00  0.4800E+02
      3.428  0.0000E+00  0.4800E+02
      3.544  0.0000E+00  0.4800E+02
      3.661  0.0000E+00  0.4800E+02
      3.778  0.0000E+00  0.4800E+02
      3.894  0.0000E+00  0.4800E+02
      4.011  0.0000E+00  0.4800E+02
      4.128  0.0000E+00  0.4800E+02
      4.244  0.0000E+00  0.4800E+02
      4.361  0.0000E+00  0.4800E+02
      4.478  0.0000E+00  0.4800E+02
      4.594  0.0000E+00  0.4800E+02
      4.711  0.0000E+00  0.4800E+02
      4.828  0.0000E+00  0.4800E+02
      4.944  0.0000E+00  0.4800E+02
      5.061  0.0000E+00  0.4800E+02
      5.178  0.0000E+00  0.4800E+02
      5.294  0.0000E+00  0.4800E+02
      5.411  0.0000E+00  0.4800E+02
      5.528  0.0000E+00  0.4800E+02
      5.644  0.0000E+00  0.4800E+02
      5.761  0.0000E+00  0.4800E+02
      5.878  0.0000E+00  0.4800E+02
      5.994  0.0000E+00  0.4800E+02
      6.111  0.0000E+00  0.4800E+02
      6.228  0.0000E+00  0.4800E+02
      6.344  0.0000E+00  0.4800E+02
      6.461  0.0000E+00  0.4800E+02
      6.578  0.0000E+00  0.4800E+02
      6.694  0.0000E+00  0.4800E+02
      6.811  0.0000E+00  0.4800E+02
      6.928  0.0000E+00  0.4800E+02
      7.044  0.0000E+00  0.4800E+02
      7.161  0.1703E-02  0.4800E+02
      7.278  0.2504E-01  0.4800E+02
      7.394  0.7573E-01  0.4801E+02
      7.511  0.1538E+00  0.4802E+02
      7.628  0.2273E+00  0.4804E+02
      7.744  0.2667E+00  0.4807E+02
      7.861  0.2877E+00  0.4810E+02
      7.978  0.3259E+00  0.4814E+02
      8.094  0.3739E+00  0.4818E+02
      8.211  0.4245E+00  0.4823E+02
      8.328  0.4776E+00  0.4828E+02
      8.444  0.5330E+00  0.4834E+02
      8.561  0.6482E+00  0.4841E+02
      8.678  0.8039E+00  0.4849E+02
      8.794  0.8102E+00  0.4859E+02
      8.911  0.8716E+00  0.4869E+02
      9.028  0.9350E+00  0.4879E+02
      9.144  0.1000E+01  0.4891E+02
      9.261  0.1068E+01  0.4903E+02
      9.378  0.1528E+01  0.4919E+02
      9.494  0.1366E+01  0.4936E+02
      9.611  0.1243E+01  0.4951E+02
      9.728  0.1408E+01  0.4966E+02
      9.844  0.1485E+01  0.4983E+02
      9.961  0.1726E+01  0.5005E+02
     10.078  0.1091E+01  0.5020E+02
     10.194  0.2092E+01  0.5036E+02
     10.311  0.6444E+01  0.5080E+02
     10.428  0.5371E+01  0.5190E+02
     10.544  0.4525E+01  0.5239E+02
     10.661  0.8569E+01  0.5317E+02
     10.778  0.6040E+01  0.5405E+02
     10.894  0.2406E+01  0.5449E+02
     11.011  0.4467E+01  0.5486E+02
     11.128  0.7736E+01  0.5564E+02
     11.244  0.5584E+01  0.5617E+02
     11.361  0.6644E+01  0.5689E+02
     11.478  0.5577E+01  0.5769E+02
     11.594  0.1413E+01  0.5807E+02
     11.711  0.1461E+02  0.5893E+02
     11.828  0.2159E+01  0.5966E+02
     11.944  0.8318E+00  0.5981E+02
     12.061  0.5292E+00  0.5989E+02
     12.178  0.3643E+00  0.5994E+02
     12.294  0.2229E+00  0.5997E+02
     12.411  0.9962E-01  0.5999E+02
     12.528  0.2122E-01  0.6000E+02
     12.644  0.0000E+00  0.6000E+02
     12.761  0.0000E+00  0.6000E+02
     12.878  0.0000E+00  0.6000E+02
     12.994  0.0000E+00  0.6000E+02
     13.111  0.0000E+00  0.6000E+02
     13.228  0.0000E+00  0.6000E+02
     13.344  0.0000E+00  0.6000E+02
     13.461  0.0000E+00  0.6000E+02
     13.578  0.0000E+00  0.6000E+02
     13.694  0.0000E+00  0.6000E+02
     13.811  0.0000E+00  0.6000E+02
     13.928  0.0000E+00  0.6000E+02
     14.044  0.0000E+00  0.6000E+02
     14.161  0.0000E+00  0.6000E+02
     14.278  0.0000E+00  0.6000E+02
     14.394  0.0000E+00  0.6000E+02
     14.511  0.0000E+00  0.6000E+02
     14.628  0.0000E+00  0.6000E+02
