       N       E                     dE             d eps       ncg     rms          rms(c)
DAV:   1     0.386818993064E+03    0.38682E+03   -0.32207E+04  1620   0.208E+03
DAV:   2    -0.554225478717E+02   -0.44224E+03   -0.43097E+03  2156   0.383E+02
DAV:   3    -0.803370751653E+02   -0.24915E+02   -0.24822E+02  1938   0.991E+01
DAV:   4    -0.806692654960E+02   -0.33219E+00   -0.33161E+00  1944   0.124E+01
DAV:   5    -0.806751195050E+02   -0.58540E-02   -0.58523E-02  1908   0.164E+00    0.188E+01
RMM:   6    -0.710793143863E+02    0.95958E+01   -0.40406E+01  1716   0.330E+01    0.513E+00
RMM:   7    -0.710498302756E+02    0.29484E-01   -0.15010E+00  1901   0.557E+00    0.339E+00
RMM:   8    -0.710656110403E+02   -0.15781E-01   -0.25442E-01  1833   0.414E+00    0.624E-01
RMM:   9    -0.710586286827E+02    0.69824E-02   -0.55949E-02  1935   0.122E+00    0.133E-01
RMM:  10    -0.710615824605E+02   -0.29538E-02   -0.13559E-02  1898   0.614E-01    0.226E-01
RMM:  11    -0.710603198523E+02    0.12626E-02   -0.25267E-03  1933   0.285E-01    0.618E-02
RMM:  12    -0.710602769763E+02    0.42876E-04   -0.76461E-04  1926   0.144E-01    0.779E-03
RMM:  13    -0.710602781464E+02   -0.11701E-05   -0.19492E-05  1296   0.261E-02
   1 F= -.71060278E+02 E0= -.71060278E+02  d E =0.000000E+00
