<?xml version="1.0" encoding="ISO-8859-1"?>
<modeling>
 <generator>
  <i name="program" type="string">vasp </i>
  <i name="version" type="string">5.4.4.18Apr17-6-g9f103f2a35  </i>
  <i name="subversion" type="string">(build Jul 15 2019 14:02:39) complex            parallel </i>
  <i name="platform" type="string">TEST </i>
  <i name="date" type="string">2024 09 18 </i>
  <i name="time" type="string">14:38:15 </i>
 </generator>
 <incar>
  <i type="string" name="PREC">normal    ! low/normal/accurate</i>
  <i type="string" name="ALGO"> Fast      ! Algorithm for electronic re</i>
  <i type="int" name="ISPIN">     1</i>
  <i type="int" name="NELMIN">     4</i>
  <i name="EDIFF">      0.00001000</i>
  <i type="int" name="NSW">     0</i>
  <i name="ENCUT">    800.00000000</i>
  <i type="string" name="LREAL"> Auto      ! Projection in reciprocal sp</i>
  <i type="int" name="ISMEAR">    -5</i>
  <i name="SIGMA">      0.20000000</i>
  <i type="logical" name="LWAVE"> F  </i>
  <v type="int" name="KPOINT_BSE">    -1     0     0     0</v>
 </incar>
 <structure name="primitive_cell" >
  <crystal>
   <varray name="basis" >
    <v>       4.91380000       0.00000000       0.00000000 </v>
    <v>      -2.45690000       4.25547563       0.00000000 </v>
    <v>       0.00000000       0.00000000       5.40520000 </v>
   </varray>
   <i name="volume">    113.02573808 </i>
   <varray name="rec_basis" >
    <v>       0.20350849       0.11749568       0.00000000 </v>
    <v>       0.00000000       0.23499136       0.00000000 </v>
    <v>       0.00000000       0.00000000       0.18500703 </v>
   </varray>
  </crystal>
  <varray name="positions" >
   <v>       0.46980000       0.00000000      -0.33333333 </v>
   <v>       0.14830000      -0.26620000      -0.45226667 </v>
   <v>       0.41450000       0.26620000      -0.21440000 </v>
   <v>      -0.26620000       0.14830000       0.45226667 </v>
   <v>      -0.41450000      -0.14830000      -0.11893333 </v>
   <v>       0.00000000       0.46980000       0.33333333 </v>
   <v>      -0.46980000      -0.46980000       0.00000000 </v>
   <v>       0.26620000       0.41450000       0.21440000 </v>
   <v>      -0.14830000      -0.41450000       0.11893333 </v>
  </varray>
 </structure>
 <varray name="primitive_index" >
  <v type="int" >        1 </v>
  <v type="int" >        6 </v>
  <v type="int" >        4 </v>
  <v type="int" >        9 </v>
  <v type="int" >        5 </v>
  <v type="int" >        3 </v>
  <v type="int" >        2 </v>
  <v type="int" >        7 </v>
  <v type="int" >        8 </v>
 </varray>
 <kpoints>
  <generation param="Gamma">
   <v type="int" name="divisions">       6        6        5 </v>
   <v name="usershift">      0.00000000       0.00000000       0.00000000 </v>
   <v name="genvec1">      0.16666667      -0.00000000       0.00000000 </v>
   <v name="genvec2">      0.00000000       0.16666667       0.00000000 </v>
   <v name="genvec3">      0.00000000       0.00000000       0.20000000 </v>
   <v name="shift">      0.00000000       0.00000000       0.00000000 </v>
  </generation>
  <varray name="kpointlist" >
   <v>       0.00000000       0.00000000       0.00000000 </v>
   <v>       0.16666667       0.00000000       0.00000000 </v>
   <v>       0.33333333       0.00000000       0.00000000 </v>
   <v>       0.50000000       0.00000000       0.00000000 </v>
   <v>       0.16666667       0.16666667       0.00000000 </v>
   <v>       0.33333333       0.16666667       0.00000000 </v>
   <v>       0.33333333       0.33333333       0.00000000 </v>
   <v>       0.00000000       0.00000000       0.20000000 </v>
   <v>       0.16666667       0.00000000       0.20000000 </v>
   <v>       0.33333333       0.00000000       0.20000000 </v>
   <v>       0.50000000       0.00000000       0.20000000 </v>
   <v>      -0.33333333       0.00000000       0.20000000 </v>
   <v>      -0.16666667       0.00000000       0.20000000 </v>
   <v>       0.16666667       0.16666667       0.20000000 </v>
   <v>       0.33333333       0.16666667       0.20000000 </v>
   <v>       0.50000000       0.16666667       0.20000000 </v>
   <v>       0.33333333       0.33333333       0.20000000 </v>
   <v>       0.00000000       0.00000000       0.40000000 </v>
   <v>       0.16666667       0.00000000       0.40000000 </v>
   <v>       0.33333333       0.00000000       0.40000000 </v>
   <v>       0.50000000       0.00000000       0.40000000 </v>
   <v>      -0.33333333       0.00000000       0.40000000 </v>
   <v>      -0.16666667       0.00000000       0.40000000 </v>
   <v>       0.16666667       0.16666667       0.40000000 </v>
   <v>       0.33333333       0.16666667       0.40000000 </v>
   <v>       0.50000000       0.16666667       0.40000000 </v>
   <v>       0.33333333       0.33333333       0.40000000 </v>
  </varray>
  <varray name="weights" >
   <v>       0.00555556 </v>
   <v>       0.03333333 </v>
   <v>       0.03333333 </v>
   <v>       0.01666667 </v>
   <v>       0.03333333 </v>
   <v>       0.06666667 </v>
   <v>       0.01111111 </v>
   <v>       0.01111111 </v>
   <v>       0.03333333 </v>
   <v>       0.03333333 </v>
   <v>       0.03333333 </v>
   <v>       0.03333333 </v>
   <v>       0.03333333 </v>
   <v>       0.06666667 </v>
   <v>       0.06666667 </v>
   <v>       0.06666667 </v>
   <v>       0.02222222 </v>
   <v>       0.01111111 </v>
   <v>       0.03333333 </v>
   <v>       0.03333333 </v>
   <v>       0.03333333 </v>
   <v>       0.03333333 </v>
   <v>       0.03333333 </v>
   <v>       0.06666667 </v>
   <v>       0.06666667 </v>
   <v>       0.06666667 </v>
   <v>       0.02222222 </v>
  </varray>
  <varray name="tetrahedronlist"  type="int" >
   <v type="int" >        4        2        2        5       13 </v>
   <v type="int" >        4        1        2        2       13 </v>
   <v type="int" >        4        1        2        8       13 </v>
   <v type="int" >        4        2        5       13       14 </v>
   <v type="int" >        8        2        9       13       14 </v>
   <v type="int" >        8        2        8        9       13 </v>
   <v type="int" >        8        3        5        6       14 </v>
   <v type="int" >        8        2        3        5       14 </v>
   <v type="int" >        4        2        3        9       14 </v>
   <v type="int" >        4        3        6       14       15 </v>
   <v type="int" >        4        3       10       14       15 </v>
   <v type="int" >        4        3        9       10       14 </v>
   <v type="int" >        4        4        6        6       15 </v>
   <v type="int" >        4        3        4        6       15 </v>
   <v type="int" >        4        3        4       10       15 </v>
   <v type="int" >        4        4        6       15       16 </v>
   <v type="int" >        4        4       11       15       16 </v>
   <v type="int" >        4        4       10       11       15 </v>
   <v type="int" >        4        3        5        6       16 </v>
   <v type="int" >        4        3        4        6       16 </v>
   <v type="int" >        4        3        4       11       16 </v>
   <v type="int" >        4        3        5       14       16 </v>
   <v type="int" >        4        3       12       14       16 </v>
   <v type="int" >        4        3       11       12       16 </v>
   <v type="int" >        4        2        2        5       14 </v>
   <v type="int" >        4        2        3       12       14 </v>
   <v type="int" >        4        2        2        9       14 </v>
   <v type="int" >        4        2       12       13       14 </v>
   <v type="int" >        4        1        2        2        9 </v>
   <v type="int" >        4        1        2        9       13 </v>
   <v type="int" >        4        1        8        9       13 </v>
   <v type="int" >        4        3        5        6       12 </v>
   <v type="int" >        4        2        3        5       12 </v>
   <v type="int" >        4        2        5       12       13 </v>
   <v type="int" >        4        5        6       12       16 </v>
   <v type="int" >        4        5       12       14       16 </v>
   <v type="int" >        4        5       12       13       14 </v>
   <v type="int" >        8        6        6        7       16 </v>
   <v type="int" >        4        5        6        6       16 </v>
   <v type="int" >        4        5        6       14       16 </v>
   <v type="int" >        8        6        7       16       17 </v>
   <v type="int" >       16        6       15       16       17 </v>
   <v type="int" >        8        6       14       15       16 </v>
   <v type="int" >        8        6        6        7       17 </v>
   <v type="int" >        8        6        6       15       17 </v>
   <v type="int" >        4        3        5        6       15 </v>
   <v type="int" >        4        5        6        6       15 </v>
   <v type="int" >        4        5        6       15       16 </v>
   <v type="int" >        4        3        5       10       15 </v>
   <v type="int" >        4        5       10       14       15 </v>
   <v type="int" >        4        5       14       15       16 </v>
   <v type="int" >        4        2        3        5       10 </v>
   <v type="int" >        4        2        5       10       14 </v>
   <v type="int" >        4        2        9       10       14 </v>
   <v type="int" >        4        4        6        6       11 </v>
   <v type="int" >        8        3        4        6       11 </v>
   <v type="int" >        4        3        6       11       12 </v>
   <v type="int" >        4        6        6       11       15 </v>
   <v type="int" >        8        6       11       15       16 </v>
   <v type="int" >        4        6       11       12       16 </v>
   <v type="int" >        8        6        6        7       15 </v>
   <v type="int" >        8        6        7       15       16 </v>
   <v type="int" >        8        7       15       16       17 </v>
   <v type="int" >        4        4        6        6       16 </v>
   <v type="int" >        4        4        6       11       16 </v>
   <v type="int" >        4        3        6       11       15 </v>
   <v type="int" >        4        3       10       11       15 </v>
   <v type="int" >        4        3        5        6       10 </v>
   <v type="int" >        4        3        4        6       10 </v>
   <v type="int" >        4        4        6       10       11 </v>
   <v type="int" >        4        5        6       10       14 </v>
   <v type="int" >        4        6       10       14       15 </v>
   <v type="int" >        4        6       10       11       15 </v>
   <v type="int" >        4        5        6        6       14 </v>
   <v type="int" >        4        6        6       14       15 </v>
   <v type="int" >        4        3        6       12       14 </v>
   <v type="int" >        4        6       12       14       16 </v>
   <v type="int" >        4        3        4        6       12 </v>
   <v type="int" >        4        4        6       12       16 </v>
   <v type="int" >        4        4       11       12       16 </v>
   <v type="int" >        4        2        2        5        9 </v>
   <v type="int" >        4        2        3        5        9 </v>
   <v type="int" >        4        3        5        9       10 </v>
   <v type="int" >        4        2        5        9       13 </v>
   <v type="int" >        4        5        9       13       14 </v>
   <v type="int" >        4        5        9       10       14 </v>
   <v type="int" >        4        2        3        5       13 </v>
   <v type="int" >        4        3        5       13       14 </v>
   <v type="int" >        4        3       12       13       14 </v>
   <v type="int" >        4        1        2        2        8 </v>
   <v type="int" >        4        2        2        8        9 </v>
   <v type="int" >        4        9       13       14       23 </v>
   <v type="int" >        4        8        9       13       23 </v>
   <v type="int" >        4        8        9       18       23 </v>
   <v type="int" >        4        9       14       23       24 </v>
   <v type="int" >        4        9       19       23       24 </v>
   <v type="int" >        4        9       18       19       23 </v>
   <v type="int" >        4       10       14       15       24 </v>
   <v type="int" >        4        9       10       14       24 </v>
   <v type="int" >        4        9       10       19       24 </v>
   <v type="int" >        4       10       15       24       25 </v>
   <v type="int" >        4       10       20       24       25 </v>
   <v type="int" >        4       10       19       20       24 </v>
   <v type="int" >        4       11       15       16       25 </v>
   <v type="int" >        4       10       11       15       25 </v>
   <v type="int" >        4       10       11       20       25 </v>
   <v type="int" >        4       11       16       25       26 </v>
   <v type="int" >        4       11       21       25       26 </v>
   <v type="int" >        4       11       20       21       25 </v>
   <v type="int" >        4       12       14       16       26 </v>
   <v type="int" >        4       11       12       16       26 </v>
   <v type="int" >        4       11       12       21       26 </v>
   <v type="int" >        4       12       14       24       26 </v>
   <v type="int" >        4       12       22       24       26 </v>
   <v type="int" >        4       12       21       22       26 </v>
   <v type="int" >        4        9       13       14       24 </v>
   <v type="int" >        4       12       13       14       24 </v>
   <v type="int" >        4       12       13       22       24 </v>
   <v type="int" >        4        9       13       19       24 </v>
   <v type="int" >        4       13       19       23       24 </v>
   <v type="int" >        4       13       22       23       24 </v>
   <v type="int" >        4        8        9       13       19 </v>
   <v type="int" >        4        8       13       19       23 </v>
   <v type="int" >        4        8       18       19       23 </v>
   <v type="int" >        4       12       14       16       22 </v>
   <v type="int" >        4       12       13       14       22 </v>
   <v type="int" >        4       13       14       22       23 </v>
   <v type="int" >        4       14       16       22       26 </v>
   <v type="int" >        4       14       22       24       26 </v>
   <v type="int" >        4       14       22       23       24 </v>
   <v type="int" >        8       15       16       17       26 </v>
   <v type="int" >        4       14       15       16       26 </v>
   <v type="int" >        4       14       15       24       26 </v>
   <v type="int" >        8       15       17       26       27 </v>
   <v type="int" >        8       15       25       26       27 </v>
   <v type="int" >        4       15       24       25       26 </v>
   <v type="int" >        8       15       16       17       27 </v>
   <v type="int" >        8       15       16       25       27 </v>
   <v type="int" >        8       16       25       26       27 </v>
   <v type="int" >        4       10       14       15       25 </v>
   <v type="int" >        4       14       15       16       25 </v>
   <v type="int" >        4       14       16       25       26 </v>
   <v type="int" >        4       10       14       20       25 </v>
   <v type="int" >        4       14       20       24       25 </v>
   <v type="int" >        4       14       24       25       26 </v>
   <v type="int" >        4        9       10       14       20 </v>
   <v type="int" >        4        9       14       20       24 </v>
   <v type="int" >        4        9       19       20       24 </v>
   <v type="int" >        4       11       15       16       21 </v>
   <v type="int" >        4       11       12       16       21 </v>
   <v type="int" >        4       12       16       21       22 </v>
   <v type="int" >        4       15       16       21       25 </v>
   <v type="int" >        4       16       21       25       26 </v>
   <v type="int" >        4       16       21       22       26 </v>
   <v type="int" >        8       15       16       17       25 </v>
   <v type="int" >        8       16       17       25       26 </v>
   <v type="int" >        8       17       25       26       27 </v>
   <v type="int" >        4       11       15       16       26 </v>
   <v type="int" >        4       11       15       21       26 </v>
   <v type="int" >        4       15       21       25       26 </v>
   <v type="int" >        4       10       11       15       21 </v>
   <v type="int" >        4       10       15       21       25 </v>
   <v type="int" >        4       10       20       21       25 </v>
   <v type="int" >        4       10       14       15       20 </v>
   <v type="int" >        4       10       11       15       20 </v>
   <v type="int" >        4       11       15       20       21 </v>
   <v type="int" >        4       14       15       20       24 </v>
   <v type="int" >        4       15       20       24       25 </v>
   <v type="int" >        4       15       20       21       25 </v>
   <v type="int" >        4       12       14       16       24 </v>
   <v type="int" >        4       14       15       16       24 </v>
   <v type="int" >        4       15       16       24       25 </v>
   <v type="int" >        4       12       16       22       24 </v>
   <v type="int" >        4       16       22       24       26 </v>
   <v type="int" >        4       16       24       25       26 </v>
   <v type="int" >        4       11       12       16       22 </v>
   <v type="int" >        4       11       16       22       26 </v>
   <v type="int" >        4       11       21       22       26 </v>
   <v type="int" >        4        9       13       14       19 </v>
   <v type="int" >        4        9       10       14       19 </v>
   <v type="int" >        4       10       14       19       20 </v>
   <v type="int" >        4       13       14       19       23 </v>
   <v type="int" >        4       14       19       23       24 </v>
   <v type="int" >        4       14       19       20       24 </v>
   <v type="int" >        4       12       13       14       23 </v>
   <v type="int" >        4       12       14       23       24 </v>
   <v type="int" >        4       12       22       23       24 </v>
   <v type="int" >        4        8        9       13       18 </v>
   <v type="int" >        4        9       13       18       19 </v>
   <v type="int" >        4       13       18       19       23 </v>
   <v type="int" >        4       19       19       23       24 </v>
   <v type="int" >        4       18       19       19       23 </v>
   <v type="int" >        2       18       18       19       19 </v>
   <v type="int" >        2       19       19       24       24 </v>
   <v type="int" >        4       20       24       24       25 </v>
   <v type="int" >        4       19       20       24       24 </v>
   <v type="int" >        8       19       20       23       24 </v>
   <v type="int" >        8       20       24       25       26 </v>
   <v type="int" >        8       20       22       24       26 </v>
   <v type="int" >        8       20       22       23       24 </v>
   <v type="int" >        8       21       25       26       26 </v>
   <v type="int" >        8       20       21       25       26 </v>
   <v type="int" >        8       20       21       22       26 </v>
   <v type="int" >        4       21       21       25       26 </v>
   <v type="int" >        4       21       21       22       26 </v>
   <v type="int" >        4       22       24       25       26 </v>
   <v type="int" >        4       21       22       25       26 </v>
   <v type="int" >        4       21       21       22       25 </v>
   <v type="int" >        4       22       24       24       25 </v>
   <v type="int" >        4       20       22       24       25 </v>
   <v type="int" >        4       20       21       22       25 </v>
   <v type="int" >        4       19       23       24       24 </v>
   <v type="int" >        4       22       23       24       24 </v>
   <v type="int" >        8       19       23       23       24 </v>
   <v type="int" >        8       18       19       23       23 </v>
   <v type="int" >        4       18       18       19       23 </v>
   <v type="int" >        8       25       25       26       27 </v>
   <v type="int" >        4       24       25       25       26 </v>
   <v type="int" >        2       24       24       25       25 </v>
   <v type="int" >        4       25       25       27       27 </v>
   <v type="int" >        8       25       26       27       27 </v>
   <v type="int" >       16       25       26       26       27 </v>
   <v type="int" >        8       24       25       26       26 </v>
   <v type="int" >        4       22       24       24       26 </v>
   <v type="int" >        4       24       24       25       26 </v>
   <v type="int" >        4       19       20       22       24 </v>
   <v type="int" >        4       19       22       24       24 </v>
   <v type="int" >        4       19       22       23       24 </v>
   <v type="int" >        4       21       25       25       26 </v>
   <v type="int" >        2       21       21       25       25 </v>
   <v type="int" >        4       20       21       21       25 </v>
  </varray>
  <i name="volumeweight">      0.00092593 </i>
 </kpoints>
 <parameters>
  <separator name="general" >
   <i type="string" name="SYSTEM">unknown system</i>
   <i type="logical" name="LCOMPAT"> F  </i>
  </separator>
  <separator name="electronic" >
   <i type="string" name="PREC">normal</i>
   <i name="ENMAX">    800.00000000</i>
   <i name="ENAUG">    605.39200000</i>
   <i name="EDIFF">      0.00001000</i>
   <i type="int" name="IALGO">    68</i>
   <i type="int" name="IWAVPR">    10</i>
   <i type="int" name="NBANDS">    30</i>
   <i name="NELECT">     48.00000000</i>
   <i type="int" name="TURBO">     0</i>
   <i type="int" name="IRESTART">     0</i>
   <i type="int" name="NREBOOT">     0</i>
   <i type="int" name="NMIN">     0</i>
   <i name="EREF">      0.00000000</i>
   <separator name="electronic smearing" >
    <i type="int" name="ISMEAR">    -5</i>
    <i name="SIGMA">      0.20000000</i>
    <i name="KSPACING">      0.50000000</i>
    <i type="logical" name="KGAMMA"> T  </i>
   </separator>
   <separator name="electronic projectors" >
    <i type="logical" name="LREAL"> T  </i>
    <v name="ROPT">     -0.00050000     -0.00050000</v>
    <i type="int" name="LMAXPAW">  -100</i>
    <i type="int" name="LMAXMIX">     2</i>
    <i type="logical" name="NLSPLINE"> F  </i>
   </separator>
   <separator name="electronic startup" >
    <i type="int" name="ISTART">     0</i>
    <i type="int" name="ICHARG">     2</i>
    <i type="int" name="INIWAV">     1</i>
   </separator>
   <separator name="electronic spin" >
    <i type="int" name="ISPIN">     1</i>
    <i type="logical" name="LNONCOLLINEAR"> F  </i>
    <v name="MAGMOM">      1.00000000      1.00000000      1.00000000      1.00000000      1.00000000      1.00000000      1.00000000      1.00000000      1.00000000</v>
    <i name="NUPDOWN">     -1.00000000</i>
    <i type="logical" name="LSORBIT"> F  </i>
    <v name="SAXIS">      0.00000000      0.00000000      1.00000000</v>
    <i type="logical" name="LSPIRAL"> F  </i>
    <v name="QSPIRAL">      0.00000000      0.00000000      0.00000000</v>
    <i type="logical" name="LZEROZ"> F  </i>
   </separator>
   <separator name="electronic exchange-correlation" >
    <i type="logical" name="LASPH"> F  </i>
    <i type="logical" name="LMETAGGA"> F  </i>
   </separator>
   <separator name="electronic convergence" >
    <i type="int" name="NELM">    60</i>
    <i type="int" name="NELMDL">    -5</i>
    <i type="int" name="NELMIN">     4</i>
    <i name="ENINI">    800.00000000</i>
    <separator name="electronic convergence detail" >
     <i type="logical" name="LDIAG"> T  </i>
     <i type="logical" name="LSUBROT"> F  </i>
     <i name="WEIMIN">      0.00000000</i>
     <i name="EBREAK">      0.00000008</i>
     <i name="DEPER">      0.30000000</i>
     <i type="int" name="NRMM">     4</i>
     <i name="TIME">      0.40000000</i>
    </separator>
   </separator>
   <separator name="electronic mixer" >
    <i name="AMIX">      0.40000000</i>
    <i name="BMIX">      1.00000000</i>
    <i name="AMIN">      0.10000000</i>
    <i name="AMIX_MAG">      1.60000000</i>
    <i name="BMIX_MAG">      1.00000000</i>
    <separator name="electronic mixer details" >
     <i type="int" name="IMIX">     4</i>
     <i type="logical" name="MIXFIRST"> F  </i>
     <i type="int" name="MAXMIX">   -45</i>
     <i name="WC">    100.00000000</i>
     <i type="int" name="INIMIX">     1</i>
     <i type="int" name="MIXPRE">     1</i>
     <i type="int" name="MREMOVE">     5</i>
    </separator>
   </separator>
   <separator name="electronic dipolcorrection" >
    <i type="logical" name="LDIPOL"> F  </i>
    <i type="logical" name="LMONO"> F  </i>
    <i type="int" name="IDIPOL">     0</i>
    <i name="EPSILON">      1.00000000</i>
    <v name="DIPOL">   -100.00000000   -100.00000000   -100.00000000</v>
    <i name="EFIELD">      0.00000000</i>
   </separator>
  </separator>
  <separator name="grids" >
   <i type="int" name="NGX">    36</i>
   <i type="int" name="NGY">    36</i>
   <i type="int" name="NGZ">    40</i>
   <i type="int" name="NGXF">    72</i>
   <i type="int" name="NGYF">    72</i>
   <i type="int" name="NGZF">    80</i>
   <i type="logical" name="ADDGRID"> F  </i>
  </separator>
  <separator name="ionic" >
   <i type="int" name="NSW">     0</i>
   <i type="int" name="IBRION">    -1</i>
   <i type="int" name="MDALGO">     0</i>
   <i type="int" name="ISIF">     2</i>
   <i name="PSTRESS">      0.00000000</i>
   <i name="EDIFFG">      0.00010000</i>
   <i type="int" name="NFREE">     0</i>
   <i name="POTIM">      0.50000000</i>
   <i name="SMASS">     -3.00000000</i>
   <i name="SCALEE">      1.00000000</i>
  </separator>
  <separator name="ionic md" >
   <i name="TEBEG">      0.00010000</i>
   <i name="TEEND">      0.00010000</i>
   <i type="int" name="NBLOCK">     1</i>
   <i type="int" name="KBLOCK">     1</i>
   <i type="int" name="NPACO">   256</i>
   <i name="APACO">     16.00000000</i>
  </separator>
  <separator name="symmetry" >
   <i type="int" name="ISYM">     2</i>
   <i name="SYMPREC">      0.00001000</i>
  </separator>
  <separator name="dos" >
   <i type="int" name="LORBIT">     0</i>
   <v name="RWIGS">     -1.00000000     -1.00000000</v>
   <i type="int" name="NEDOS">   301</i>
   <i name="EMIN">     10.00000000</i>
   <i name="EMAX">    -10.00000000</i>
   <i name="EFERMI">      0.00000000</i>
  </separator>
  <separator name="writing" >
   <i type="int" name="NWRITE">     2</i>
   <i type="logical" name="LWAVE"> F  </i>
   <i type="logical" name="LDOWNSAMPLE"> F  </i>
   <i type="logical" name="LCHARG"> T  </i>
   <i type="logical" name="LPARD"> F  </i>
   <i type="logical" name="LVTOT"> F  </i>
   <i type="logical" name="LVHAR"> F  </i>
   <i type="logical" name="LELF"> F  </i>
   <i type="logical" name="LOPTICS"> F  </i>
   <v name="STM">      0.00000000      0.00000000      0.00000000      0.00000000      0.00000000      0.00000000      0.00000000</v>
  </separator>
  <separator name="performance" >
   <i type="int" name="NPAR">     2</i>
   <i type="int" name="NSIM">     4</i>
   <i type="int" name="NBLK">    -1</i>
   <i type="logical" name="LPLANE"> T  </i>
   <i type="logical" name="LSCALAPACK"> T  </i>
   <i type="logical" name="LSCAAWARE"> F  </i>
   <i type="logical" name="LSCALU"> F  </i>
   <i type="logical" name="LASYNC"> F  </i>
   <i type="logical" name="LORBITALREAL"> F  </i>
  </separator>
  <separator name="miscellaneous" >
   <i type="int" name="IDIOT">     3</i>
   <i type="int" name="ISPECIAL">     0</i>
   <i type="logical" name="LMUSIC"> F  </i>
   <v name="POMASS">     28.08500000     16.00000000</v>
   <v name="DARWINR">      0.00000000      0.00000000</v>
   <v name="DARWINV">      1.00000000      1.00000000</v>
   <i type="logical" name="LCORR"> T  </i>
  </separator>
  <i type="logical" name="GGA_COMPAT"> T  </i>
  <i type="logical" name="LBERRY"> F  </i>
  <i type="int" name="ICORELEVEL">     0</i>
  <i type="logical" name="LDAU"> F  </i>
  <i type="int" name="I_CONSTRAINED_M">     0</i>
  <separator name="electronic exchange-correlation" >
   <i type="string" name="GGA">--</i>
   <i type="int" name="VOSKOWN">     0</i>
   <i type="logical" name="LHFCALC"> F  </i>
   <i type="string" name="PRECFOCK"></i>
   <i type="logical" name="LSYMGRAD"> F  </i>
   <i type="logical" name="LHFONE"> F  </i>
   <i type="logical" name="LRHFCALC"> F  </i>
   <i type="logical" name="LTHOMAS"> F  </i>
   <i type="logical" name="LMODELHF"> F  </i>
   <i name="ENCUT4O">     -1.00000000</i>
   <i type="int" name="EXXOEP">     0</i>
   <i type="int" name="FOURORBIT">     0</i>
   <i name="AEXX">      0.00000000</i>
   <i name="HFALPHA">      0.00000000</i>
   <i name="MCALPHA">      0.00000000</i>
   <i name="ALDAX">      1.00000000</i>
   <i name="AGGAX">      1.00000000</i>
   <i name="ALDAC">      1.00000000</i>
   <i name="AGGAC">      1.00000000</i>
   <i type="int" name="NKREDX">     1</i>
   <i type="int" name="NKREDY">     1</i>
   <i type="int" name="NKREDZ">     1</i>
   <i type="logical" name="SHIFTRED"> F  </i>
   <i type="logical" name="ODDONLY"> F  </i>
   <i type="logical" name="EVENONLY"> F  </i>
   <i type="int" name="LMAXFOCK">     0</i>
   <i type="int" name="NMAXFOCKAE">     0</i>
   <i type="logical" name="LFOCKAEDFT"> F  </i>
   <i name="HFSCREEN">      0.00000000</i>
   <i name="HFSCREENC">      0.00000000</i>
   <i type="int" name="NBANDSGWLOW">     0</i>
  </separator>
  <separator name="vdW DFT" >
   <i type="logical" name="LUSE_VDW"> F  </i>
   <i name="Zab_VDW">     -0.84910000</i>
   <i name="PARAM1">      0.12340000</i>
   <i name="PARAM2">      1.00000000</i>
   <i name="PARAM3">      0.00000000</i>
  </separator>
  <separator name="model GW" >
   <i type="int" name="MODEL_GW">     0</i>
   <i name="MODEL_EPS0">      7.53504921</i>
   <i name="MODEL_ALPHA">      1.00000000</i>
  </separator>
  <separator name="linear response parameters" >
   <i type="logical" name="LEPSILON"> F  </i>
   <i type="logical" name="LRPA"> F  </i>
   <i type="logical" name="LNABLA"> F  </i>
   <i type="logical" name="LVEL"> F  </i>
   <i type="int" name="KINTER">     0</i>
   <i name="CSHIFT">      0.10000000</i>
   <i name="OMEGAMAX">     -1.00000000</i>
   <i name="DEG_THRESHOLD">      0.00200000</i>
   <i name="RTIME">     -0.10000000</i>
   <i name="WPLASMAI">      0.00000000</i>
   <v name="DFIELD">      0.00000000      0.00000000      0.00000000</v>
   <v name="WPLASMA">      0.00000000      0.00000000      0.00000000      0.00000000      0.00000000      0.00000000      0.00000000      0.00000000      0.00000000</v>
  </separator>
  <separator name="orbital magnetization" >
   <i type="logical" name="NUCIND"> F  </i>
   <v name="MAGPOS">      0.00000000      0.00000000      0.00000000</v>
   <i type="logical" name="LNICSALL"> T  </i>
   <i type="logical" name="ORBITALMAG"> F  </i>
   <i type="logical" name="LMAGBLOCH"> F  </i>
   <i type="logical" name="LCHIMAG"> F  </i>
   <i type="logical" name="LGAUGE"> T  </i>
   <i type="int" name="MAGATOM">     0</i>
   <v name="MAGDIPOL">      0.00000000      0.00000000      0.00000000</v>
   <v name="AVECCONST">      0.00000000      0.00000000      0.00000000</v>
  </separator>
  <separator name="response functions" >
   <i type="logical" name="LADDER"> F  </i>
   <i type="logical" name="LRPAFORCE"> F  </i>
   <i type="logical" name="LFXC"> F  </i>
   <i type="logical" name="LHARTREE"> T  </i>
   <i type="int" name="IBSE">     0</i>
   <v type="int" name="KPOINT">    -1     0     0     0</v>
   <i type="logical" name="LTCTE"> F  </i>
   <i type="logical" name="LTETE"> F  </i>
   <i type="logical" name="LTRIPLET"> F  </i>
   <i type="logical" name="LFXCEPS"> F  </i>
   <i type="logical" name="LFXHEG"> F  </i>
   <i type="int" name="NATURALO">     2</i>
   <i type="logical" name="L2ORDER"> F  </i>
   <i type="logical" name="LMP2LT"> F  </i>
   <i type="logical" name="LUSEW"> F  </i>
   <i name="ENCUTGW">     -2.00000000</i>
   <i name="ENCUTGWSOFT">     -2.00000000</i>
   <i name="ENCUTLF">     -1.00000000</i>
   <i type="int" name="LMAXMP2">    -1</i>
   <i name="SCISSOR">      0.00000000</i>
   <i type="int" name="NOMEGA">     0</i>
   <i type="int" name="NOMEGAR">     0</i>
   <i type="int" name="NBANDSGW">    -1</i>
   <i type="int" name="NBANDSO">    -1</i>
   <i type="int" name="NBANDSV">    -1</i>
   <i type="int" name="NELM">     1</i>
   <i type="int" name="NELMHF">     1</i>
   <i type="int" name="DIM">     3</i>
   <i type="int" name="ANTIRES">     0</i>
   <i name="OMEGAMAX">    -30.00000000</i>
   <i name="OMEGAMIN">    -30.00000000</i>
   <i name="OMEGATL">   -200.00000000</i>
   <i type="int" name="OMEGAGRID">   140</i>
   <i name="CSHIFT">     -0.10000000</i>
   <i type="logical" name="SELFENERGY"> F  </i>
   <i type="logical" name="LSPECTRAL"> F  </i>
   <i type="logical" name="LSPECTRALGW"> F  </i>
   <i type="logical" name="LSINGLES"> F  </i>
   <i type="logical" name="LFERMIGW"> F  </i>
   <i type="logical" name="ODDONLYGW"> F  </i>
   <i type="logical" name="EVENONLYGW"> F  </i>
   <i type="int" name="NKREDLFX">     1</i>
   <i type="int" name="NKREDLFY">     1</i>
   <i type="int" name="NKREDLFZ">     1</i>
   <i type="int" name="MAXMEM">  2800</i>
   <i type="int" name="TELESCOPE">     0</i>
   <i type="int" name="TAUPAR">     1</i>
   <i type="int" name="OMEGAPAR">    -1</i>
   <i name="LAMBDA">      1.00000000</i>
  </separator>
  <separator name="External order field" >
   <i name="OFIELD_KAPPA">      0.00000000</i>
   <v name="OFIELD_K">      0.00000000      0.00000000      0.00000000</v>
   <i name="OFIELD_Q6_NEAR">      0.00000000</i>
   <i name="OFIELD_Q6_FAR">      0.00000000</i>
   <i name="OFIELD_A">      0.00000000</i>
  </separator>
 </parameters>
 <atominfo>
  <atoms>       9 </atoms>
  <types>       2 </types>
  <array name="atoms" >
   <dimension dim="1">ion</dimension>
   <field type="string">element</field>
   <field type="int">atomtype</field>
   <set>
    <rc><c>Si</c><c>   1</c></rc>
    <rc><c>Si</c><c>   1</c></rc>
    <rc><c>Si</c><c>   1</c></rc>
    <rc><c>O </c><c>   2</c></rc>
    <rc><c>O </c><c>   2</c></rc>
    <rc><c>O </c><c>   2</c></rc>
    <rc><c>O </c><c>   2</c></rc>
    <rc><c>O </c><c>   2</c></rc>
    <rc><c>O </c><c>   2</c></rc>
   </set>
  </array>
  <array name="atomtypes" >
   <dimension dim="1">type</dimension>
   <field type="int">atomspertype</field>
   <field type="string">element</field>
   <field>mass</field>
   <field>valence</field>
   <field type="string">pseudopotential</field>
   <set>
    <rc><c>   3</c><c>Si</c><c>     28.08500000</c><c>      4.00000000</c><c> PAW_PBE Si 05Jan2001                   </c></rc>
    <rc><c>   6</c><c>O </c><c>     16.00000000</c><c>      6.00000000</c><c> PAW_PBE O 08Apr2002                    </c></rc>
   </set>
  </array>
 </atominfo>
 <structure name="initialpos" >
  <crystal>
   <varray name="basis" >
    <v>       4.91380000       0.00000000       0.00000000 </v>
    <v>      -2.45690000       4.25547563       0.00000000 </v>
    <v>       0.00000000       0.00000000       5.40520000 </v>
   </varray>
   <i name="volume">    113.02573808 </i>
   <varray name="rec_basis" >
    <v>       0.20350849       0.11749568       0.00000000 </v>
    <v>       0.00000000       0.23499136       0.00000000 </v>
    <v>       0.00000000       0.00000000       0.18500703 </v>
   </varray>
  </crystal>
  <varray name="positions" >
   <v>       0.46980000       0.00000000       0.66666667 </v>
   <v>       0.53020000       0.53020000       0.00000000 </v>
   <v>       0.00000000       0.46980000       0.33333333 </v>
   <v>       0.41450000       0.26620000       0.78560000 </v>
   <v>       0.58550000       0.85170000       0.88106667 </v>
   <v>       0.14830000       0.73380000       0.54773333 </v>
   <v>       0.26620000       0.41450000       0.21440000 </v>
   <v>       0.85170000       0.58550000       0.11893333 </v>
   <v>       0.73380000       0.14830000       0.45226667 </v>
  </varray>
 </structure>
 <calculation>
  <scstep>
   <time name="dav">    1.92    1.94</time>
   <time name="total">    2.01    2.17</time>
   <energy>
    <i name="alphaZ">     69.72428684 </i>
    <i name="ewald">  -1887.17190222 </i>
    <i name="hartreedc">   -937.16683993 </i>
    <i name="XCdc">    142.01202145 </i>
    <i name="pawpsdc">   1574.92322788 </i>
    <i name="pawaedc">  -1533.24131965 </i>
    <i name="eentropy">      0.00000000 </i>
    <i name="bandstr">     54.29134284 </i>
    <i name="atom">   2903.44817585 </i>
    <i name="e_fr_energy">    386.81899306 </i>
    <i name="e_wo_entrp">    386.81899306 </i>
    <i name="e_0_energy">    386.81899306 </i>
   </energy>
  </scstep>
  <scstep>
   <time name="dav">    2.35    2.38</time>
   <time name="total">    2.36    2.38</time>
   <energy>
    <i name="e_fr_energy">    -55.42254787 </i>
    <i name="e_wo_entrp">    -55.42254787 </i>
    <i name="e_0_energy">    -55.42254787 </i>
   </energy>
  </scstep>
  <scstep>
   <time name="dav">    2.16    2.18</time>
   <time name="total">    2.16    2.18</time>
   <energy>
    <i name="e_fr_energy">    -80.33707517 </i>
    <i name="e_wo_entrp">    -80.33707517 </i>
    <i name="e_0_energy">    -80.33707517 </i>
   </energy>
  </scstep>
  <scstep>
   <time name="dav">    2.16    2.18</time>
   <time name="total">    2.16    2.18</time>
   <energy>
    <i name="e_fr_energy">    -80.66926550 </i>
    <i name="e_wo_entrp">    -80.66926550 </i>
    <i name="e_0_energy">    -80.66926550 </i>
   </energy>
  </scstep>
  <scstep>
   <time name="dav">    2.19    2.22</time>
   <time name="total">    2.31    2.34</time>
   <energy>
    <i name="e_fr_energy">    -80.67511951 </i>
    <i name="e_wo_entrp">    -80.67511951 </i>
    <i name="e_0_energy">    -80.67511951 </i>
   </energy>
  </scstep>
  <scstep>
   <time name="diag">    0.34    0.35</time>
   <time name="diis">    1.30    1.31</time>
   <time name="orth">    0.04    0.04</time>
   <time name="total">    1.87    1.88</time>
   <energy>
    <i name="e_fr_energy">    -71.07931439 </i>
    <i name="e_wo_entrp">    -71.07931439 </i>
    <i name="e_0_energy">    -71.07931439 </i>
   </energy>
  </scstep>
  <scstep>
   <time name="diag">    0.35    0.35</time>
   <time name="diis">    1.43    1.44</time>
   <time name="orth">    0.04    0.04</time>
   <time name="total">    2.00    2.02</time>
   <energy>
    <i name="e_fr_energy">    -71.04983028 </i>
    <i name="e_wo_entrp">    -71.04983028 </i>
    <i name="e_0_energy">    -71.04983028 </i>
   </energy>
  </scstep>
  <scstep>
   <time name="diag">    0.35    0.35</time>
   <time name="diis">    1.46    1.48</time>
   <time name="orth">    0.04    0.04</time>
   <time name="total">    2.04    2.06</time>
   <energy>
    <i name="e_fr_energy">    -71.06561104 </i>
    <i name="e_wo_entrp">    -71.06561104 </i>
    <i name="e_0_energy">    -71.06561104 </i>
   </energy>
  </scstep>
  <scstep>
   <time name="diag">    0.35    0.35</time>
   <time name="diis">    1.52    1.53</time>
   <time name="orth">    0.04    0.04</time>
   <time name="total">    2.10    2.12</time>
   <energy>
    <i name="e_fr_energy">    -71.05862868 </i>
    <i name="e_wo_entrp">    -71.05862868 </i>
    <i name="e_0_energy">    -71.05862868 </i>
   </energy>
  </scstep>
  <scstep>
   <time name="diag">    0.35    0.35</time>
   <time name="diis">    1.50    1.51</time>
   <time name="orth">    0.04    0.04</time>
   <time name="total">    2.08    2.10</time>
   <energy>
    <i name="e_fr_energy">    -71.06158246 </i>
    <i name="e_wo_entrp">    -71.06158246 </i>
    <i name="e_0_energy">    -71.06158246 </i>
   </energy>
  </scstep>
  <scstep>
   <time name="diag">    0.35    0.35</time>
   <time name="diis">    1.51    1.52</time>
   <time name="orth">    0.04    0.04</time>
   <time name="total">    2.09    2.10</time>
   <energy>
    <i name="e_fr_energy">    -71.06031985 </i>
    <i name="e_wo_entrp">    -71.06031985 </i>
    <i name="e_0_energy">    -71.06031985 </i>
   </energy>
  </scstep>
  <scstep>
   <time name="diag">    0.35    0.35</time>
   <time name="diis">    1.50    1.51</time>
   <time name="orth">    0.04    0.04</time>
   <time name="total">    2.08    2.10</time>
   <energy>
    <i name="e_fr_energy">    -71.06027698 </i>
    <i name="e_wo_entrp">    -71.06027698 </i>
    <i name="e_0_energy">    -71.06027698 </i>
   </energy>
  </scstep>
  <scstep>
   <time name="diag">    0.35    0.35</time>
   <time name="diis">    1.08    1.08</time>
   <time name="orth">    0.04    0.04</time>
   <time name="total">    1.53    1.55</time>
   <energy>
    <i name="alphaZ">     69.72428684 </i>
    <i name="ewald">  -1887.17190222 </i>
    <i name="hartreedc">  -1071.55241625 </i>
    <i name="XCdc">    151.13082147 </i>
    <i name="pawpsdc">   2051.38160460 </i>
    <i name="pawaedc">  -2012.05020309 </i>
    <i name="eentropy">      0.00000000 </i>
    <i name="bandstr">   -275.97064534 </i>
    <i name="atom">   2903.44817585 </i>
    <i name="e_fr_energy">    -71.06027815 </i>
    <i name="e_wo_entrp">    -71.06027815 </i>
    <i name="e_0_energy">    -71.06027815 </i>
   </energy>
  </scstep>
  <structure>
   <crystal>
    <varray name="basis" >
     <v>       4.91380000       0.00000000       0.00000000 </v>
     <v>      -2.45690000       4.25547563       0.00000000 </v>
     <v>       0.00000000       0.00000000       5.40520000 </v>
    </varray>
    <i name="volume">    113.02573808 </i>
    <varray name="rec_basis" >
     <v>       0.20350849       0.11749568       0.00000000 </v>
     <v>       0.00000000       0.23499136       0.00000000 </v>
     <v>       0.00000000       0.00000000       0.18500703 </v>
    </varray>
   </crystal>
   <varray name="positions" >
    <v>       0.46980000       0.00000000       0.66666667 </v>
    <v>       0.53020000       0.53020000       0.00000000 </v>
    <v>       0.00000000       0.46980000       0.33333333 </v>
    <v>       0.41450000       0.26620000       0.78560000 </v>
    <v>       0.58550000       0.85170000       0.88106667 </v>
    <v>       0.14830000       0.73380000       0.54773333 </v>
    <v>       0.26620000       0.41450000       0.21440000 </v>
    <v>       0.85170000       0.58550000       0.11893333 </v>
    <v>       0.73380000       0.14830000       0.45226667 </v>
   </varray>
  </structure>
  <varray name="forces" >
   <v>       0.40793556       0.00000000       0.00000000 </v>
   <v>      -0.20396778      -0.35328256       0.00000000 </v>
   <v>      -0.20396778       0.35328256       0.00000000 </v>
   <v>      -0.51339499       0.28333027       0.07539816 </v>
   <v>       0.01132628       0.58627824      -0.07539816 </v>
   <v>      -0.51339499      -0.28333027      -0.07539816 </v>
   <v>       0.50206871      -0.30294796      -0.07539816 </v>
   <v>       0.50206871       0.30294796       0.07539816 </v>
   <v>       0.01132628      -0.58627824       0.07539816 </v>
  </varray>
  <varray name="stress" >
   <v>      85.56602503      -0.00000000       0.00000000 </v>
   <v>      -0.00000000      85.56602503       0.00000000 </v>
   <v>       0.00000000       0.00000000      71.77697605 </v>
  </varray>
  <energy>
   <i name="e_fr_energy">    -71.06027815 </i>
   <i name="e_wo_entrp">    -71.06027815 </i>
   <i name="e_0_energy">      0.00000000 </i>
  </energy>
  <time name="totalsc">   30.00   31.53</time>
  <eigenvalues>
   <array>
    <dimension dim="1">band</dimension>
    <dimension dim="2">kpoint</dimension>
    <dimension dim="3">spin</dimension>
    <field>eigene</field>
    <field>occ</field>
    <set>
     <set comment="spin 1">
      <set comment="kpoint 1">
       <r>  -18.3725    1.0000 </r>
       <r>  -16.8358    1.0000 </r>
       <r>  -16.8357    1.0000 </r>
       <r>  -16.2011    1.0000 </r>
       <r>  -16.1531    1.0000 </r>
       <r>  -16.1530    1.0000 </r>
       <r>   -7.1769    1.0000 </r>
       <r>   -7.1768    1.0000 </r>
       <r>   -4.3370    1.0000 </r>
       <r>   -4.3309    1.0000 </r>
       <r>   -4.1787    1.0000 </r>
       <r>   -4.1786    1.0000 </r>
       <r>   -1.8602    1.0000 </r>
       <r>   -1.8602    1.0000 </r>
       <r>   -1.6231    1.0000 </r>
       <r>   -1.3628    1.0000 </r>
       <r>   -0.4123    1.0000 </r>
       <r>   -0.4123    1.0000 </r>
       <r>   -0.3943    1.0000 </r>
       <r>    0.1088    1.0000 </r>
       <r>    0.1088    1.0000 </r>
       <r>    0.4181    1.0000 </r>
       <r>    0.7585    1.0000 </r>
       <r>    0.7585    1.0000 </r>
       <r>    7.1197    0.0000 </r>
       <r>   10.3976    0.0000 </r>
       <r>   10.3976    0.0000 </r>
       <r>   10.8991    0.0000 </r>
       <r>   10.8991    0.0000 </r>
       <r>   12.6276    0.0000 </r>
      </set>
      <set comment="kpoint 2">
       <r>  -18.2910    1.0000 </r>
       <r>  -16.9300    1.0000 </r>
       <r>  -16.8238    1.0000 </r>
       <r>  -16.2207    1.0000 </r>
       <r>  -16.1702    1.0000 </r>
       <r>  -16.1595    1.0000 </r>
       <r>   -7.2144    1.0000 </r>
       <r>   -6.9953    1.0000 </r>
       <r>   -4.3769    1.0000 </r>
       <r>   -4.3509    1.0000 </r>
       <r>   -4.2795    1.0000 </r>
       <r>   -4.0181    1.0000 </r>
       <r>   -1.9854    1.0000 </r>
       <r>   -1.8005    1.0000 </r>
       <r>   -1.5929    1.0000 </r>
       <r>   -1.1965    1.0000 </r>
       <r>   -0.6857    1.0000 </r>
       <r>   -0.4511    1.0000 </r>
       <r>   -0.4057    1.0000 </r>
       <r>    0.0461    1.0000 </r>
       <r>    0.0988    1.0000 </r>
       <r>    0.3158    1.0000 </r>
       <r>    0.8218    1.0000 </r>
       <r>    0.8555    1.0000 </r>
       <r>    7.5418    0.0000 </r>
       <r>   10.3842    0.0000 </r>
       <r>   10.4444    0.0000 </r>
       <r>   10.9341    0.0000 </r>
       <r>   11.0424    0.0000 </r>
       <r>   12.3567    0.0000 </r>
      </set>
      <set comment="kpoint 3">
       <r>  -18.0720    1.0000 </r>
       <r>  -17.1893    1.0000 </r>
       <r>  -16.7983    1.0000 </r>
       <r>  -16.2439    1.0000 </r>
       <r>  -16.1986    1.0000 </r>
       <r>  -16.1786    1.0000 </r>
       <r>   -7.2861    1.0000 </r>
       <r>   -6.5758    1.0000 </r>
       <r>   -4.6328    1.0000 </r>
       <r>   -4.3846    1.0000 </r>
       <r>   -4.3028    1.0000 </r>
       <r>   -3.7158    1.0000 </r>
       <r>   -2.0679    1.0000 </r>
       <r>   -1.6922    1.0000 </r>
       <r>   -1.5676    1.0000 </r>
       <r>   -1.2005    1.0000 </r>
       <r>   -1.0015    1.0000 </r>
       <r>   -0.5822    1.0000 </r>
       <r>   -0.4904    1.0000 </r>
       <r>   -0.0052    1.0000 </r>
       <r>    0.0640    1.0000 </r>
       <r>    0.2670    1.0000 </r>
       <r>    0.8497    1.0000 </r>
       <r>    0.9990    1.0000 </r>
       <r>    8.5406    0.0000 </r>
       <r>   10.4274    0.0000 </r>
       <r>   10.5547    0.0000 </r>
       <r>   11.0550    0.0000 </r>
       <r>   11.3944    0.0000 </r>
       <r>   11.7577    0.0000 </r>
      </set>
      <set comment="kpoint 4">
       <r>  -17.8826    1.0000 </r>
       <r>  -17.4038    1.0000 </r>
       <r>  -16.7846    1.0000 </r>
       <r>  -16.2498    1.0000 </r>
       <r>  -16.2113    1.0000 </r>
       <r>  -16.1902    1.0000 </r>
       <r>   -7.3204    1.0000 </r>
       <r>   -6.3136    1.0000 </r>
       <r>   -4.8211    1.0000 </r>
       <r>   -4.3620    1.0000 </r>
       <r>   -4.3309    1.0000 </r>
       <r>   -3.5501    1.0000 </r>
       <r>   -1.9958    1.0000 </r>
       <r>   -1.8293    1.0000 </r>
       <r>   -1.5988    1.0000 </r>
       <r>   -1.2177    1.0000 </r>
       <r>   -1.0095    1.0000 </r>
       <r>   -0.6652    1.0000 </r>
       <r>   -0.5979    1.0000 </r>
       <r>   -0.0082    1.0000 </r>
       <r>    0.0570    1.0000 </r>
       <r>    0.2975    1.0000 </r>
       <r>    0.8328    1.0000 </r>
       <r>    1.0566    1.0000 </r>
       <r>    9.3783    0.0000 </r>
       <r>   10.1149    0.0000 </r>
       <r>   10.8425    0.0000 </r>
       <r>   10.8432    0.0000 </r>
       <r>   11.6216    0.0000 </r>
       <r>   11.6954    0.0000 </r>
      </set>
      <set comment="kpoint 5">
       <r>  -18.1383    1.0000 </r>
       <r>  -17.1059    1.0000 </r>
       <r>  -16.8123    1.0000 </r>
       <r>  -16.2386    1.0000 </r>
       <r>  -16.1955    1.0000 </r>
       <r>  -16.1691    1.0000 </r>
       <r>   -7.2785    1.0000 </r>
       <r>   -6.6695    1.0000 </r>
       <r>   -4.6406    1.0000 </r>
       <r>   -4.3697    1.0000 </r>
       <r>   -4.2277    1.0000 </r>
       <r>   -3.8053    1.0000 </r>
       <r>   -2.0349    1.0000 </r>
       <r>   -1.7875    1.0000 </r>
       <r>   -1.4879    1.0000 </r>
       <r>   -1.0880    1.0000 </r>
       <r>   -1.0803    1.0000 </r>
       <r>   -0.5610    1.0000 </r>
       <r>   -0.3631    1.0000 </r>
       <r>   -0.1314    1.0000 </r>
       <r>    0.1815    1.0000 </r>
       <r>    0.2269    1.0000 </r>
       <r>    0.8406    1.0000 </r>
       <r>    0.9765    1.0000 </r>
       <r>    8.2493    0.0000 </r>
       <r>   10.4268    0.0000 </r>
       <r>   10.5686    0.0000 </r>
       <r>   11.0511    0.0000 </r>
       <r>   11.2208    0.0000 </r>
       <r>   11.9494    0.0000 </r>
      </set>
      <set comment="kpoint 6">
       <r>  -17.8894    1.0000 </r>
       <r>  -17.3844    1.0000 </r>
       <r>  -16.8045    1.0000 </r>
       <r>  -16.2471    1.0000 </r>
       <r>  -16.2096    1.0000 </r>
       <r>  -16.1874    1.0000 </r>
       <r>   -7.3437    1.0000 </r>
       <r>   -6.2135    1.0000 </r>
       <r>   -5.0401    1.0000 </r>
       <r>   -4.3218    1.0000 </r>
       <r>   -4.2301    1.0000 </r>
       <r>   -3.5579    1.0000 </r>
       <r>   -1.9842    1.0000 </r>
       <r>   -1.7852    1.0000 </r>
       <r>   -1.6588    1.0000 </r>
       <r>   -1.1649    1.0000 </r>
       <r>   -1.0025    1.0000 </r>
       <r>   -0.6963    1.0000 </r>
       <r>   -0.5080    1.0000 </r>
       <r>   -0.1898    1.0000 </r>
       <r>    0.0296    1.0000 </r>
       <r>    0.4219    1.0000 </r>
       <r>    0.7992    1.0000 </r>
       <r>    1.0680    1.0000 </r>
       <r>    9.2659    0.0000 </r>
       <r>   10.3652    0.0000 </r>
       <r>   10.6826    0.0000 </r>
       <r>   11.0859    0.0000 </r>
       <r>   11.5001    0.0000 </r>
       <r>   11.7027    0.0000 </r>
      </set>
      <set comment="kpoint 7">
       <r>  -17.6374    1.0000 </r>
       <r>  -17.6374    1.0000 </r>
       <r>  -16.8186    1.0000 </r>
       <r>  -16.2460    1.0000 </r>
       <r>  -16.2018    1.0000 </r>
       <r>  -16.2018    1.0000 </r>
       <r>   -7.3813    1.0000 </r>
       <r>   -5.6429    1.0000 </r>
       <r>   -5.6429    1.0000 </r>
       <r>   -4.2392    1.0000 </r>
       <r>   -4.2392    1.0000 </r>
       <r>   -3.4636    1.0000 </r>
       <r>   -1.8546    1.0000 </r>
       <r>   -1.8546    1.0000 </r>
       <r>   -1.8038    1.0000 </r>
       <r>   -0.9778    1.0000 </r>
       <r>   -0.9778    1.0000 </r>
       <r>   -0.8218    1.0000 </r>
       <r>   -0.6252    1.0000 </r>
       <r>   -0.1473    1.0000 </r>
       <r>   -0.1473    1.0000 </r>
       <r>    0.6576    1.0000 </r>
       <r>    0.6576    1.0000 </r>
       <r>    1.0992    1.0000 </r>
       <r>   10.0497    0.0000 </r>
       <r>   10.0497    0.0000 </r>
       <r>   10.5373    0.0000 </r>
       <r>   11.4743    0.0000 </r>
       <r>   11.6176    0.0000 </r>
       <r>   11.6546    0.0000 </r>
      </set>
      <set comment="kpoint 8">
       <r>  -18.2940    1.0000 </r>
       <r>  -17.2848    1.0000 </r>
       <r>  -16.4513    1.0000 </r>
       <r>  -16.1988    1.0000 </r>
       <r>  -16.1688    1.0000 </r>
       <r>  -16.1380    1.0000 </r>
       <r>   -7.8498    1.0000 </r>
       <r>   -6.3497    1.0000 </r>
       <r>   -4.4965    1.0000 </r>
       <r>   -4.4201    1.0000 </r>
       <r>   -4.3714    1.0000 </r>
       <r>   -3.8734    1.0000 </r>
       <r>   -1.9442    1.0000 </r>
       <r>   -1.6658    1.0000 </r>
       <r>   -1.5649    1.0000 </r>
       <r>   -1.2330    1.0000 </r>
       <r>   -0.6054    1.0000 </r>
       <r>   -0.4845    1.0000 </r>
       <r>   -0.4243    1.0000 </r>
       <r>   -0.2844    1.0000 </r>
       <r>    0.0771    1.0000 </r>
       <r>    0.5185    1.0000 </r>
       <r>    0.8089    1.0000 </r>
       <r>    0.9684    1.0000 </r>
       <r>    7.5138    0.0000 </r>
       <r>   10.2546    0.0000 </r>
       <r>   10.4188    0.0000 </r>
       <r>   10.5199    0.0000 </r>
       <r>   11.2223    0.0000 </r>
       <r>   12.1278    0.0000 </r>
      </set>
      <set comment="kpoint 9">
       <r>  -18.2168    1.0000 </r>
       <r>  -17.2840    1.0000 </r>
       <r>  -16.5345    1.0000 </r>
       <r>  -16.2138    1.0000 </r>
       <r>  -16.1879    1.0000 </r>
       <r>  -16.1492    1.0000 </r>
       <r>   -7.7049    1.0000 </r>
       <r>   -6.3579    1.0000 </r>
       <r>   -4.6748    1.0000 </r>
       <r>   -4.3783    1.0000 </r>
       <r>   -4.1820    1.0000 </r>
       <r>   -3.9229    1.0000 </r>
       <r>   -2.0443    1.0000 </r>
       <r>   -1.6498    1.0000 </r>
       <r>   -1.5290    1.0000 </r>
       <r>   -1.1554    1.0000 </r>
       <r>   -0.8349    1.0000 </r>
       <r>   -0.4985    1.0000 </r>
       <r>   -0.3953    1.0000 </r>
       <r>   -0.2404    1.0000 </r>
       <r>    0.1599    1.0000 </r>
       <r>    0.4147    1.0000 </r>
       <r>    0.7504    1.0000 </r>
       <r>    1.0100    1.0000 </r>
       <r>    7.8896    0.0000 </r>
       <r>   10.2684    0.0000 </r>
       <r>   10.5103    0.0000 </r>
       <r>   10.6049    0.0000 </r>
       <r>   11.2974    0.0000 </r>
       <r>   11.9889    0.0000 </r>
      </set>
      <set comment="kpoint 10">
       <r>  -18.0150    1.0000 </r>
       <r>  -17.3241    1.0000 </r>
       <r>  -16.7207    1.0000 </r>
       <r>  -16.2413    1.0000 </r>
       <r>  -16.2141    1.0000 </r>
       <r>  -16.1689    1.0000 </r>
       <r>   -7.4117    1.0000 </r>
       <r>   -6.3297    1.0000 </r>
       <r>   -4.9098    1.0000 </r>
       <r>   -4.3370    1.0000 </r>
       <r>   -4.1009    1.0000 </r>
       <r>   -3.8268    1.0000 </r>
       <r>   -2.1395    1.0000 </r>
       <r>   -1.7123    1.0000 </r>
       <r>   -1.4753    1.0000 </r>
       <r>   -1.2126    1.0000 </r>
       <r>   -0.8967    1.0000 </r>
       <r>   -0.6034    1.0000 </r>
       <r>   -0.4927    1.0000 </r>
       <r>   -0.0554    1.0000 </r>
       <r>    0.1595    1.0000 </r>
       <r>    0.2791    1.0000 </r>
       <r>    0.7930    1.0000 </r>
       <r>    0.9654    1.0000 </r>
       <r>    8.8054    0.0000 </r>
       <r>   10.3202    0.0000 </r>
       <r>   10.5723    0.0000 </r>
       <r>   11.0314    0.0000 </r>
       <r>   11.4051    0.0000 </r>
       <r>   11.6550    0.0000 </r>
      </set>
      <set comment="kpoint 11">
       <r>  -17.8602    1.0000 </r>
       <r>  -17.3927    1.0000 </r>
       <r>  -16.8312    1.0000 </r>
       <r>  -16.2501    1.0000 </r>
       <r>  -16.2158    1.0000 </r>
       <r>  -16.1814    1.0000 </r>
       <r>   -7.2728    1.0000 </r>
       <r>   -6.2743    1.0000 </r>
       <r>   -5.0454    1.0000 </r>
       <r>   -4.3585    1.0000 </r>
       <r>   -4.1064    1.0000 </r>
       <r>   -3.6734    1.0000 </r>
       <r>   -2.0479    1.0000 </r>
       <r>   -1.9469    1.0000 </r>
       <r>   -1.4718    1.0000 </r>
       <r>   -1.2626    1.0000 </r>
       <r>   -0.8463    1.0000 </r>
       <r>   -0.7264    1.0000 </r>
       <r>   -0.4221    1.0000 </r>
       <r>   -0.0742    1.0000 </r>
       <r>    0.1386    1.0000 </r>
       <r>    0.3313    1.0000 </r>
       <r>    0.7199    1.0000 </r>
       <r>    0.9959    1.0000 </r>
       <r>    9.5716    0.0000 </r>
       <r>   10.1808    0.0000 </r>
       <r>   10.6857    0.0000 </r>
       <r>   11.1517    0.0000 </r>
       <r>   11.5745    0.0000 </r>
       <r>   11.7405    0.0000 </r>
      </set>
      <set comment="kpoint 12">
       <r>  -18.0187    1.0000 </r>
       <r>  -17.3040    1.0000 </r>
       <r>  -16.7541    1.0000 </r>
       <r>  -16.2334    1.0000 </r>
       <r>  -16.1931    1.0000 </r>
       <r>  -16.1803    1.0000 </r>
       <r>   -7.4153    1.0000 </r>
       <r>   -6.3311    1.0000 </r>
       <r>   -4.9115    1.0000 </r>
       <r>   -4.3762    1.0000 </r>
       <r>   -4.0778    1.0000 </r>
       <r>   -3.7774    1.0000 </r>
       <r>   -2.0752    1.0000 </r>
       <r>   -1.7038    1.0000 </r>
       <r>   -1.5284    1.0000 </r>
       <r>   -1.3910    1.0000 </r>
       <r>   -0.9263    1.0000 </r>
       <r>   -0.5019    1.0000 </r>
       <r>   -0.3485    1.0000 </r>
       <r>   -0.0913    1.0000 </r>
       <r>    0.0615    1.0000 </r>
       <r>    0.3930    1.0000 </r>
       <r>    0.6351    1.0000 </r>
       <r>    1.0588    1.0000 </r>
       <r>    8.7717    0.0000 </r>
       <r>   10.3797    0.0000 </r>
       <r>   10.7663    0.0000 </r>
       <r>   11.1720    0.0000 </r>
       <r>   11.3577    0.0000 </r>
       <r>   11.7506    0.0000 </r>
      </set>
      <set comment="kpoint 13">
       <r>  -18.2174    1.0000 </r>
       <r>  -17.2799    1.0000 </r>
       <r>  -16.5456    1.0000 </r>
       <r>  -16.2125    1.0000 </r>
       <r>  -16.1774    1.0000 </r>
       <r>  -16.1532    1.0000 </r>
       <r>   -7.7059    1.0000 </r>
       <r>   -6.3580    1.0000 </r>
       <r>   -4.6790    1.0000 </r>
       <r>   -4.3795    1.0000 </r>
       <r>   -4.1962    1.0000 </r>
       <r>   -3.8945    1.0000 </r>
       <r>   -2.0176    1.0000 </r>
       <r>   -1.6671    1.0000 </r>
       <r>   -1.5236    1.0000 </r>
       <r>   -1.2061    1.0000 </r>
       <r>   -0.8781    1.0000 </r>
       <r>   -0.4132    1.0000 </r>
       <r>   -0.3842    1.0000 </r>
       <r>   -0.2608    1.0000 </r>
       <r>    0.1901    1.0000 </r>
       <r>    0.3761    1.0000 </r>
       <r>    0.7248    1.0000 </r>
       <r>    1.0396    1.0000 </r>
       <r>    7.8799    0.0000 </r>
       <r>   10.3069    0.0000 </r>
       <r>   10.5358    0.0000 </r>
       <r>   10.6541    0.0000 </r>
       <r>   11.2299    0.0000 </r>
       <r>   11.9893    0.0000 </r>
      </set>
      <set comment="kpoint 14">
       <r>  -18.0759    1.0000 </r>
       <r>  -17.2967    1.0000 </r>
       <r>  -16.6875    1.0000 </r>
       <r>  -16.2297    1.0000 </r>
       <r>  -16.2042    1.0000 </r>
       <r>  -16.1658    1.0000 </r>
       <r>   -7.4881    1.0000 </r>
       <r>   -6.3317    1.0000 </r>
       <r>   -4.8885    1.0000 </r>
       <r>   -4.3432    1.0000 </r>
       <r>   -4.0739    1.0000 </r>
       <r>   -3.8624    1.0000 </r>
       <r>   -2.0964    1.0000 </r>
       <r>   -1.6502    1.0000 </r>
       <r>   -1.5316    1.0000 </r>
       <r>   -1.2596    1.0000 </r>
       <r>   -0.9443    1.0000 </r>
       <r>   -0.4951    1.0000 </r>
       <r>   -0.4137    1.0000 </r>
       <r>   -0.1328    1.0000 </r>
       <r>    0.1764    1.0000 </r>
       <r>    0.3070    1.0000 </r>
       <r>    0.7108    1.0000 </r>
       <r>    1.0277    1.0000 </r>
       <r>    8.5205    0.0000 </r>
       <r>   10.3264    0.0000 </r>
       <r>   10.7362    0.0000 </r>
       <r>   10.8859    0.0000 </r>
       <r>   11.3507    0.0000 </r>
       <r>   11.7283    0.0000 </r>
      </set>
      <set comment="kpoint 15">
       <r>  -17.8619    1.0000 </r>
       <r>  -17.3909    1.0000 </r>
       <r>  -16.8280    1.0000 </r>
       <r>  -16.2487    1.0000 </r>
       <r>  -16.2243    1.0000 </r>
       <r>  -16.1780    1.0000 </r>
       <r>   -7.2860    1.0000 </r>
       <r>   -6.1906    1.0000 </r>
       <r>   -5.1868    1.0000 </r>
       <r>   -4.3212    1.0000 </r>
       <r>   -4.0739    1.0000 </r>
       <r>   -3.6916    1.0000 </r>
       <r>   -2.0924    1.0000 </r>
       <r>   -1.8148    1.0000 </r>
       <r>   -1.5890    1.0000 </r>
       <r>   -1.1327    1.0000 </r>
       <r>   -0.9000    1.0000 </r>
       <r>   -0.7077    1.0000 </r>
       <r>   -0.4215    1.0000 </r>
       <r>   -0.1388    1.0000 </r>
       <r>    0.1211    1.0000 </r>
       <r>    0.3735    1.0000 </r>
       <r>    0.7374    1.0000 </r>
       <r>    0.9700    1.0000 </r>
       <r>    9.4549    0.0000 </r>
       <r>   10.4444    0.0000 </r>
       <r>   10.6040    0.0000 </r>
       <r>   11.2065    0.0000 </r>
       <r>   11.4102    0.0000 </r>
       <r>   11.6746    0.0000 </r>
      </set>
      <set comment="kpoint 16">
       <r>  -17.8646    1.0000 </r>
       <r>  -17.3816    1.0000 </r>
       <r>  -16.8397    1.0000 </r>
       <r>  -16.2438    1.0000 </r>
       <r>  -16.2229    1.0000 </r>
       <r>  -16.1791    1.0000 </r>
       <r>   -7.2872    1.0000 </r>
       <r>   -6.1918    1.0000 </r>
       <r>   -5.1865    1.0000 </r>
       <r>   -4.3306    1.0000 </r>
       <r>   -4.0678    1.0000 </r>
       <r>   -3.6768    1.0000 </r>
       <r>   -2.0566    1.0000 </r>
       <r>   -1.8415    1.0000 </r>
       <r>   -1.6073    1.0000 </r>
       <r>   -1.1863    1.0000 </r>
       <r>   -0.9120    1.0000 </r>
       <r>   -0.6735    1.0000 </r>
       <r>   -0.3240    1.0000 </r>
       <r>   -0.1869    1.0000 </r>
       <r>    0.0714    1.0000 </r>
       <r>    0.4550    1.0000 </r>
       <r>    0.6506    1.0000 </r>
       <r>    1.0062    1.0000 </r>
       <r>    9.4447    0.0000 </r>
       <r>   10.3529    0.0000 </r>
       <r>   10.9099    0.0000 </r>
       <r>   11.0645    0.0000 </r>
       <r>   11.4698    0.0000 </r>
       <r>   11.7638    0.0000 </r>
      </set>
      <set comment="kpoint 17">
       <r>  -17.7367    1.0000 </r>
       <r>  -17.4752    1.0000 </r>
       <r>  -16.8786    1.0000 </r>
       <r>  -16.2432    1.0000 </r>
       <r>  -16.2406    1.0000 </r>
       <r>  -16.1813    1.0000 </r>
       <r>   -7.2414    1.0000 </r>
       <r>   -5.9355    1.0000 </r>
       <r>   -5.5191    1.0000 </r>
       <r>   -4.2987    1.0000 </r>
       <r>   -4.0634    1.0000 </r>
       <r>   -3.6188    1.0000 </r>
       <r>   -2.0604    1.0000 </r>
       <r>   -1.7569    1.0000 </r>
       <r>   -1.7535    1.0000 </r>
       <r>   -0.9687    1.0000 </r>
       <r>   -0.9128    1.0000 </r>
       <r>   -0.8462    1.0000 </r>
       <r>   -0.3640    1.0000 </r>
       <r>   -0.2083    1.0000 </r>
       <r>    0.0258    1.0000 </r>
       <r>    0.5729    1.0000 </r>
       <r>    0.6186    1.0000 </r>
       <r>    0.9651    1.0000 </r>
       <r>   10.0539    0.0000 </r>
       <r>   10.2543    0.0000 </r>
       <r>   10.6631    0.0000 </r>
       <r>   11.3718    0.0000 </r>
       <r>   11.4362    0.0000 </r>
       <r>   11.5241    0.0000 </r>
      </set>
      <set comment="kpoint 18">
       <r>  -18.0668    1.0000 </r>
       <r>  -17.7160    1.0000 </r>
       <r>  -16.2242    1.0000 </r>
       <r>  -16.1923    1.0000 </r>
       <r>  -16.1821    1.0000 </r>
       <r>  -16.1286    1.0000 </r>
       <r>   -8.2301    1.0000 </r>
       <r>   -5.5314    1.0000 </r>
       <r>   -4.8818    1.0000 </r>
       <r>   -4.5352    1.0000 </r>
       <r>   -4.5030    1.0000 </r>
       <r>   -3.6338    1.0000 </r>
       <r>   -1.7864    1.0000 </r>
       <r>   -1.5559    1.0000 </r>
       <r>   -1.5132    1.0000 </r>
       <r>   -1.0235    1.0000 </r>
       <r>   -0.8462    1.0000 </r>
       <r>   -0.7477    1.0000 </r>
       <r>   -0.6371    1.0000 </r>
       <r>   -0.4603    1.0000 </r>
       <r>   -0.0930    1.0000 </r>
       <r>    0.7629    1.0000 </r>
       <r>    0.9787    1.0000 </r>
       <r>    0.9796    1.0000 </r>
       <r>    8.4948    0.0000 </r>
       <r>    9.6458    0.0000 </r>
       <r>   10.1998    0.0000 </r>
       <r>   10.5270    0.0000 </r>
       <r>   11.2514    0.0000 </r>
       <r>   11.6905    0.0000 </r>
      </set>
      <set comment="kpoint 19">
       <r>  -18.0049    1.0000 </r>
       <r>  -17.6744    1.0000 </r>
       <r>  -16.3455    1.0000 </r>
       <r>  -16.2135    1.0000 </r>
       <r>  -16.1899    1.0000 </r>
       <r>  -16.1429    1.0000 </r>
       <r>   -8.0304    1.0000 </r>
       <r>   -5.6359    1.0000 </r>
       <r>   -5.0500    1.0000 </r>
       <r>   -4.4349    1.0000 </r>
       <r>   -4.3373    1.0000 </r>
       <r>   -3.6906    1.0000 </r>
       <r>   -1.9264    1.0000 </r>
       <r>   -1.6446    1.0000 </r>
       <r>   -1.4954    1.0000 </r>
       <r>   -1.1218    1.0000 </r>
       <r>   -0.9447    1.0000 </r>
       <r>   -0.5718    1.0000 </r>
       <r>   -0.5247    1.0000 </r>
       <r>   -0.3232    1.0000 </r>
       <r>   -0.0199    1.0000 </r>
       <r>    0.6513    1.0000 </r>
       <r>    0.9042    1.0000 </r>
       <r>    0.9339    1.0000 </r>
       <r>    8.7733    0.0000 </r>
       <r>    9.7824    0.0000 </r>
       <r>   10.3719    0.0000 </r>
       <r>   10.5677    0.0000 </r>
       <r>   11.3106    0.0000 </r>
       <r>   11.6708    0.0000 </r>
      </set>
      <set comment="kpoint 20">
       <r>  -17.8766    1.0000 </r>
       <r>  -17.5382    1.0000 </r>
       <r>  -16.6583    1.0000 </r>
       <r>  -16.2542    1.0000 </r>
       <r>  -16.1965    1.0000 </r>
       <r>  -16.1655    1.0000 </r>
       <r>   -7.5443    1.0000 </r>
       <r>   -5.9354    1.0000 </r>
       <r>   -5.2334    1.0000 </r>
       <r>   -4.3156    1.0000 </r>
       <r>   -4.0620    1.0000 </r>
       <r>   -3.8262    1.0000 </r>
       <r>   -2.1065    1.0000 </r>
       <r>   -1.9235    1.0000 </r>
       <r>   -1.3512    1.0000 </r>
       <r>   -1.1859    1.0000 </r>
       <r>   -0.9452    1.0000 </r>
       <r>   -0.4864    1.0000 </r>
       <r>   -0.3534    1.0000 </r>
       <r>   -0.1441    1.0000 </r>
       <r>    0.1196    1.0000 </r>
       <r>    0.4554    1.0000 </r>
       <r>    0.6809    1.0000 </r>
       <r>    0.8789    1.0000 </r>
       <r>    9.4986    0.0000 </r>
       <r>   10.0804    0.0000 </r>
       <r>   10.6263    0.0000 </r>
       <r>   10.8076    0.0000 </r>
       <r>   11.6353    0.0000 </r>
       <r>   11.8981    0.0000 </r>
      </set>
      <set comment="kpoint 21">
       <r>  -17.8205    1.0000 </r>
       <r>  -17.3740    1.0000 </r>
       <r>  -16.9063    1.0000 </r>
       <r>  -16.2714    1.0000 </r>
       <r>  -16.1987    1.0000 </r>
       <r>  -16.1754    1.0000 </r>
       <r>   -7.1897    1.0000 </r>
       <r>   -6.2086    1.0000 </r>
       <r>   -5.2846    1.0000 </r>
       <r>   -4.2869    1.0000 </r>
       <r>   -3.9227    1.0000 </r>
       <r>   -3.8895    1.0000 </r>
       <r>   -2.1162    1.0000 </r>
       <r>   -2.0872    1.0000 </r>
       <r>   -1.3626    1.0000 </r>
       <r>   -1.1069    1.0000 </r>
       <r>   -0.9534    1.0000 </r>
       <r>   -0.5146    1.0000 </r>
       <r>   -0.2118    1.0000 </r>
       <r>   -0.0663    1.0000 </r>
       <r>    0.1273    1.0000 </r>
       <r>    0.4102    1.0000 </r>
       <r>    0.4667    1.0000 </r>
       <r>    0.9072    1.0000 </r>
       <r>    9.9971    0.0000 </r>
       <r>   10.3842    0.0000 </r>
       <r>   10.7486    0.0000 </r>
       <r>   11.0592    0.0000 </r>
       <r>   11.4867    0.0000 </r>
       <r>   11.6697    0.0000 </r>
      </set>
      <set comment="kpoint 22">
       <r>  -17.8823    1.0000 </r>
       <r>  -17.5259    1.0000 </r>
       <r>  -16.6759    1.0000 </r>
       <r>  -16.2471    1.0000 </r>
       <r>  -16.1883    1.0000 </r>
       <r>  -16.1696    1.0000 </r>
       <r>   -7.5462    1.0000 </r>
       <r>   -5.9401    1.0000 </r>
       <r>   -5.2274    1.0000 </r>
       <r>   -4.3365    1.0000 </r>
       <r>   -4.0627    1.0000 </r>
       <r>   -3.7872    1.0000 </r>
       <r>   -2.0834    1.0000 </r>
       <r>   -1.9467    1.0000 </r>
       <r>   -1.3211    1.0000 </r>
       <r>   -1.2569    1.0000 </r>
       <r>   -1.0061    1.0000 </r>
       <r>   -0.4129    1.0000 </r>
       <r>   -0.3023    1.0000 </r>
       <r>   -0.1128    1.0000 </r>
       <r>    0.1311    1.0000 </r>
       <r>    0.3254    1.0000 </r>
       <r>    0.6297    1.0000 </r>
       <r>    0.9781    1.0000 </r>
       <r>    9.3810    0.0000 </r>
       <r>   10.3556    0.0000 </r>
       <r>   10.5565    0.0000 </r>
       <r>   11.0702    0.0000 </r>
       <r>   11.2080    0.0000 </r>
       <r>   11.6582    0.0000 </r>
      </set>
      <set comment="kpoint 23">
       <r>  -18.0061    1.0000 </r>
       <r>  -17.6721    1.0000 </r>
       <r>  -16.3555    1.0000 </r>
       <r>  -16.2107    1.0000 </r>
       <r>  -16.1820    1.0000 </r>
       <r>  -16.1445    1.0000 </r>
       <r>   -8.0309    1.0000 </r>
       <r>   -5.6372    1.0000 </r>
       <r>   -5.0493    1.0000 </r>
       <r>   -4.4312    1.0000 </r>
       <r>   -4.3459    1.0000 </r>
       <r>   -3.6793    1.0000 </r>
       <r>   -1.9196    1.0000 </r>
       <r>   -1.6418    1.0000 </r>
       <r>   -1.4930    1.0000 </r>
       <r>   -1.1507    1.0000 </r>
       <r>   -0.9769    1.0000 </r>
       <r>   -0.5693    1.0000 </r>
       <r>   -0.4526    1.0000 </r>
       <r>   -0.3478    1.0000 </r>
       <r>   -0.0196    1.0000 </r>
       <r>    0.6495    1.0000 </r>
       <r>    0.8141    1.0000 </r>
       <r>    1.0195    1.0000 </r>
       <r>    8.7474    0.0000 </r>
       <r>    9.8376    0.0000 </r>
       <r>   10.3309    0.0000 </r>
       <r>   10.6860    0.0000 </r>
       <r>   11.2025    0.0000 </r>
       <r>   11.6574    0.0000 </r>
      </set>
      <set comment="kpoint 24">
       <r>  -17.9096    1.0000 </r>
       <r>  -17.5817    1.0000 </r>
       <r>  -16.5718    1.0000 </r>
       <r>  -16.2384    1.0000 </r>
       <r>  -16.1923    1.0000 </r>
       <r>  -16.1665    1.0000 </r>
       <r>   -7.6818    1.0000 </r>
       <r>   -5.8271    1.0000 </r>
       <r>   -5.2297    1.0000 </r>
       <r>   -4.3143    1.0000 </r>
       <r>   -4.1538    1.0000 </r>
       <r>   -3.7718    1.0000 </r>
       <r>   -2.0623    1.0000 </r>
       <r>   -1.8419    1.0000 </r>
       <r>   -1.3892    1.0000 </r>
       <r>   -1.2465    1.0000 </r>
       <r>   -0.9378    1.0000 </r>
       <r>   -0.4992    1.0000 </r>
       <r>   -0.3576    1.0000 </r>
       <r>   -0.1485    1.0000 </r>
       <r>    0.0859    1.0000 </r>
       <r>    0.4547    1.0000 </r>
       <r>    0.7409    1.0000 </r>
       <r>    0.9059    1.0000 </r>
       <r>    9.2299    0.0000 </r>
       <r>   10.0922    0.0000 </r>
       <r>   10.5301    0.0000 </r>
       <r>   10.9153    0.0000 </r>
       <r>   11.2950    0.0000 </r>
       <r>   11.6918    0.0000 </r>
      </set>
      <set comment="kpoint 25">
       <r>  -17.8140    1.0000 </r>
       <r>  -17.3993    1.0000 </r>
       <r>  -16.8749    1.0000 </r>
       <r>  -16.2691    1.0000 </r>
       <r>  -16.2072    1.0000 </r>
       <r>  -16.1826    1.0000 </r>
       <r>   -7.1834    1.0000 </r>
       <r>   -6.1631    1.0000 </r>
       <r>   -5.3741    1.0000 </r>
       <r>   -4.2333    1.0000 </r>
       <r>   -3.9669    1.0000 </r>
       <r>   -3.8855    1.0000 </r>
       <r>   -2.1545    1.0000 </r>
       <r>   -1.9574    1.0000 </r>
       <r>   -1.4629    1.0000 </r>
       <r>   -1.0967    1.0000 </r>
       <r>   -0.8814    1.0000 </r>
       <r>   -0.6390    1.0000 </r>
       <r>   -0.1557    1.0000 </r>
       <r>   -0.0370    1.0000 </r>
       <r>    0.1904    1.0000 </r>
       <r>    0.3665    1.0000 </r>
       <r>    0.5562    1.0000 </r>
       <r>    0.7853    1.0000 </r>
       <r>    9.9208    0.0000 </r>
       <r>   10.4283    0.0000 </r>
       <r>   10.7257    0.0000 </r>
       <r>   11.1309    0.0000 </r>
       <r>   11.4450    0.0000 </r>
       <r>   11.6985    0.0000 </r>
      </set>
      <set comment="kpoint 26">
       <r>  -17.8162    1.0000 </r>
       <r>  -17.3923    1.0000 </r>
       <r>  -16.8827    1.0000 </r>
       <r>  -16.2663    1.0000 </r>
       <r>  -16.2062    1.0000 </r>
       <r>  -16.1833    1.0000 </r>
       <r>   -7.1841    1.0000 </r>
       <r>   -6.1647    1.0000 </r>
       <r>   -5.3720    1.0000 </r>
       <r>   -4.2422    1.0000 </r>
       <r>   -3.9697    1.0000 </r>
       <r>   -3.8682    1.0000 </r>
       <r>   -2.1485    1.0000 </r>
       <r>   -1.9630    1.0000 </r>
       <r>   -1.4700    1.0000 </r>
       <r>   -1.0947    1.0000 </r>
       <r>   -0.9287    1.0000 </r>
       <r>   -0.5904    1.0000 </r>
       <r>   -0.1613    1.0000 </r>
       <r>    0.0218    1.0000 </r>
       <r>    0.1849    1.0000 </r>
       <r>    0.2942    1.0000 </r>
       <r>    0.5350    1.0000 </r>
       <r>    0.8292    1.0000 </r>
       <r>    9.8639    0.0000 </r>
       <r>   10.5288    0.0000 </r>
       <r>   10.7970    0.0000 </r>
       <r>   11.1224    0.0000 </r>
       <r>   11.3038    0.0000 </r>
       <r>   11.7008    0.0000 </r>
      </set>
      <set comment="kpoint 27">
       <r>  -17.7805    1.0000 </r>
       <r>  -17.2635    1.0000 </r>
       <r>  -17.0439    1.0000 </r>
       <r>  -16.2770    1.0000 </r>
       <r>  -16.2196    1.0000 </r>
       <r>  -16.1918    1.0000 </r>
       <r>   -6.8692    1.0000 </r>
       <r>   -6.3846    1.0000 </r>
       <r>   -5.4825    1.0000 </r>
       <r>   -4.1835    1.0000 </r>
       <r>   -3.9269    1.0000 </r>
       <r>   -3.9259    1.0000 </r>
       <r>   -2.1868    1.0000 </r>
       <r>   -1.7467    1.0000 </r>
       <r>   -1.7312    1.0000 </r>
       <r>   -0.8887    1.0000 </r>
       <r>   -0.8649    1.0000 </r>
       <r>   -0.8584    1.0000 </r>
       <r>    0.0136    1.0000 </r>
       <r>    0.0302    1.0000 </r>
       <r>    0.1957    1.0000 </r>
       <r>    0.4188    1.0000 </r>
       <r>    0.4405    1.0000 </r>
       <r>    0.6474    1.0000 </r>
       <r>   10.1465    0.0000 </r>
       <r>   10.6997    0.0000 </r>
       <r>   10.9236    0.0000 </r>
       <r>   11.2093    0.0000 </r>
       <r>   11.3134    0.0000 </r>
       <r>   11.3827    0.0000 </r>
      </set>
     </set>
    </set>
   </array>
  </eigenvalues>
  <separator name="orbital magnetization" >
   <v name="MAGDIPOLOUT">      0.00000000      0.00000000      0.00000000</v>
  </separator>
  <dos>
   <i name="efermi">      1.12340094 </i>
   <total>
    <array>
     <dimension dim="1">gridpoints</dimension>
     <dimension dim="2">spin</dimension>
     <field>energy</field>
     <field>total</field>
     <field>integrated</field>
     <set>
      <set comment="spin 1">
       <r>   -20.3725     0.0000     0.0000 </r>
       <r>   -20.2558     0.0000     0.0000 </r>
       <r>   -20.1391     0.0000     0.0000 </r>
       <r>   -20.0225     0.0000     0.0000 </r>
       <r>   -19.9058     0.0000     0.0000 </r>
       <r>   -19.7891     0.0000     0.0000 </r>
       <r>   -19.6725     0.0000     0.0000 </r>
       <r>   -19.5558     0.0000     0.0000 </r>
       <r>   -19.4391     0.0000     0.0000 </r>
       <r>   -19.3225     0.0000     0.0000 </r>
       <r>   -19.2058     0.0000     0.0000 </r>
       <r>   -19.0891     0.0000     0.0000 </r>
       <r>   -18.9725     0.0000     0.0000 </r>
       <r>   -18.8558     0.0000     0.0000 </r>
       <r>   -18.7391     0.0000     0.0000 </r>
       <r>   -18.6225     0.0000     0.0000 </r>
       <r>   -18.5058     0.0000     0.0000 </r>
       <r>   -18.3891     0.0000     0.0000 </r>
       <r>   -18.2725     1.0733     0.0419 </r>
       <r>   -18.1558     1.7791     0.2037 </r>
       <r>   -18.0391     3.2669     0.4756 </r>
       <r>   -17.9225     5.0256     0.9651 </r>
       <r>   -17.8058     5.6729     1.8642 </r>
       <r>   -17.6891     1.1299     2.0123 </r>
       <r>   -17.5725     1.7011     2.1640 </r>
       <r>   -17.4558     3.9906     2.4614 </r>
       <r>   -17.3391     5.2863     3.4451 </r>
       <r>   -17.2225     1.6866     3.7832 </r>
       <r>   -17.1058     0.7616     3.9171 </r>
       <r>   -16.9891     0.7377     3.9895 </r>
       <r>   -16.8725     4.6840     4.2173 </r>
       <r>   -16.7558     5.2451     5.1827 </r>
       <r>   -16.6391     2.3206     5.5700 </r>
       <r>   -16.5225     1.3840     5.7790 </r>
       <r>   -16.4058     0.8683     5.9120 </r>
       <r>   -16.2891     0.3569     5.9893 </r>
       <r>   -16.1725    60.7908    11.1216 </r>
       <r>   -16.0558     0.0000    12.0000 </r>
       <r>   -15.9391     0.0000    12.0000 </r>
       <r>   -15.8225     0.0000    12.0000 </r>
       <r>   -15.7058     0.0000    12.0000 </r>
       <r>   -15.5891     0.0000    12.0000 </r>
       <r>   -15.4725     0.0000    12.0000 </r>
       <r>   -15.3558     0.0000    12.0000 </r>
       <r>   -15.2391     0.0000    12.0000 </r>
       <r>   -15.1225     0.0000    12.0000 </r>
       <r>   -15.0058     0.0000    12.0000 </r>
       <r>   -14.8891     0.0000    12.0000 </r>
       <r>   -14.7725     0.0000    12.0000 </r>
       <r>   -14.6558     0.0000    12.0000 </r>
       <r>   -14.5391     0.0000    12.0000 </r>
       <r>   -14.4225     0.0000    12.0000 </r>
       <r>   -14.3058     0.0000    12.0000 </r>
       <r>   -14.1891     0.0000    12.0000 </r>
       <r>   -14.0725     0.0000    12.0000 </r>
       <r>   -13.9558     0.0000    12.0000 </r>
       <r>   -13.8391     0.0000    12.0000 </r>
       <r>   -13.7225     0.0000    12.0000 </r>
       <r>   -13.6058     0.0000    12.0000 </r>
       <r>   -13.4891     0.0000    12.0000 </r>
       <r>   -13.3725     0.0000    12.0000 </r>
       <r>   -13.2558     0.0000    12.0000 </r>
       <r>   -13.1391     0.0000    12.0000 </r>
       <r>   -13.0225     0.0000    12.0000 </r>
       <r>   -12.9058     0.0000    12.0000 </r>
       <r>   -12.7891     0.0000    12.0000 </r>
       <r>   -12.6725     0.0000    12.0000 </r>
       <r>   -12.5558     0.0000    12.0000 </r>
       <r>   -12.4391     0.0000    12.0000 </r>
       <r>   -12.3225     0.0000    12.0000 </r>
       <r>   -12.2058     0.0000    12.0000 </r>
       <r>   -12.0891     0.0000    12.0000 </r>
       <r>   -11.9725     0.0000    12.0000 </r>
       <r>   -11.8558     0.0000    12.0000 </r>
       <r>   -11.7391     0.0000    12.0000 </r>
       <r>   -11.6225     0.0000    12.0000 </r>
       <r>   -11.5058     0.0000    12.0000 </r>
       <r>   -11.3891     0.0000    12.0000 </r>
       <r>   -11.2725     0.0000    12.0000 </r>
       <r>   -11.1558     0.0000    12.0000 </r>
       <r>   -11.0391     0.0000    12.0000 </r>
       <r>   -10.9225     0.0000    12.0000 </r>
       <r>   -10.8058     0.0000    12.0000 </r>
       <r>   -10.6891     0.0000    12.0000 </r>
       <r>   -10.5725     0.0000    12.0000 </r>
       <r>   -10.4558     0.0000    12.0000 </r>
       <r>   -10.3391     0.0000    12.0000 </r>
       <r>   -10.2225     0.0000    12.0000 </r>
       <r>   -10.1058     0.0000    12.0000 </r>
       <r>    -9.9891     0.0000    12.0000 </r>
       <r>    -9.8725     0.0000    12.0000 </r>
       <r>    -9.7558     0.0000    12.0000 </r>
       <r>    -9.6391     0.0000    12.0000 </r>
       <r>    -9.5225     0.0000    12.0000 </r>
       <r>    -9.4058     0.0000    12.0000 </r>
       <r>    -9.2891     0.0000    12.0000 </r>
       <r>    -9.1725     0.0000    12.0000 </r>
       <r>    -9.0558     0.0000    12.0000 </r>
       <r>    -8.9391     0.0000    12.0000 </r>
       <r>    -8.8225     0.0000    12.0000 </r>
       <r>    -8.7058     0.0000    12.0000 </r>
       <r>    -8.5891     0.0000    12.0000 </r>
       <r>    -8.4724     0.0000    12.0000 </r>
       <r>    -8.3558     0.0000    12.0000 </r>
       <r>    -8.2391     0.0000    12.0000 </r>
       <r>    -8.1224     0.2357    12.0117 </r>
       <r>    -8.0058     0.4206    12.0559 </r>
       <r>    -7.8891     0.6259    12.1167 </r>
       <r>    -7.7724     0.8406    12.2026 </r>
       <r>    -7.6558     1.1251    12.3139 </r>
       <r>    -7.5391     1.5643    12.4698 </r>
       <r>    -7.4224     2.5819    12.6967 </r>
       <r>    -7.3058     9.4428    13.3260 </r>
       <r>    -7.1891     2.9584    13.8333 </r>
       <r>    -7.0724     0.5432    13.9571 </r>
       <r>    -6.9558     0.2853    14.0037 </r>
       <r>    -6.8391     0.2363    14.0309 </r>
       <r>    -6.7224     0.3767    14.0663 </r>
       <r>    -6.6058     0.5744    14.1205 </r>
       <r>    -6.4891     0.9750    14.2086 </r>
       <r>    -6.3724     1.6484    14.3574 </r>
       <r>    -6.2558     4.4928    14.6719 </r>
       <r>    -6.1391     3.4130    15.2940 </r>
       <r>    -6.0224     1.9073    15.5975 </r>
       <r>    -5.9058     1.1199    15.7668 </r>
       <r>    -5.7891     0.7552    15.8747 </r>
       <r>    -5.6724     0.4983    15.9468 </r>
       <r>    -5.5558     0.1891    15.9992 </r>
       <r>    -5.4391     1.0949    16.0380 </r>
       <r>    -5.3224     3.0570    16.2826 </r>
       <r>    -5.2058     2.9782    16.6777 </r>
       <r>    -5.0891     2.9030    17.0160 </r>
       <r>    -4.9724     2.4444    17.3377 </r>
       <r>    -4.8558     1.6665    17.5740 </r>
       <r>    -4.7391     1.2182    17.7411 </r>
       <r>    -4.6224     0.8671    17.8626 </r>
       <r>    -4.5058     0.7944    17.9478 </r>
       <r>    -4.3891     4.6985    18.1890 </r>
       <r>    -4.2724     9.9122    19.8958 </r>
       <r>    -4.1558     5.8430    20.8075 </r>
       <r>    -4.0391     5.5528    21.5577 </r>
       <r>    -3.9224     1.6050    22.0993 </r>
       <r>    -3.8058     8.2372    22.8475 </r>
       <r>    -3.6891     4.2606    23.5876 </r>
       <r>    -3.5724     1.8130    23.9441 </r>
       <r>    -3.4558     0.0000    24.0000 </r>
       <r>    -3.3391     0.0000    24.0000 </r>
       <r>    -3.2224     0.0000    24.0000 </r>
       <r>    -3.1058     0.0000    24.0000 </r>
       <r>    -2.9891     0.0000    24.0000 </r>
       <r>    -2.8724     0.0000    24.0000 </r>
       <r>    -2.7558     0.0000    24.0000 </r>
       <r>    -2.6391     0.0000    24.0000 </r>
       <r>    -2.5224     0.0000    24.0000 </r>
       <r>    -2.4058     0.0000    24.0000 </r>
       <r>    -2.2891     0.0000    24.0000 </r>
       <r>    -2.1724     1.8084    24.0126 </r>
       <r>    -2.0558    13.1747    25.1389 </r>
       <r>    -1.9391     6.0166    26.1217 </r>
       <r>    -1.8224     8.0883    26.7957 </r>
       <r>    -1.7058     6.3742    27.6935 </r>
       <r>    -1.5891     6.6810    28.3778 </r>
       <r>    -1.4724     5.7815    29.4360 </r>
       <r>    -1.3558     1.7130    29.9844 </r>
       <r>    -1.2391     6.5475    30.2107 </r>
       <r>    -1.1224     7.1671    31.5741 </r>
       <r>    -1.0058     3.5590    32.0022 </r>
       <r>    -0.8891    10.9145    33.6669 </r>
       <r>    -0.7724     2.2983    33.9772 </r>
       <r>    -0.6558     5.9031    34.5169 </r>
       <r>    -0.5391     9.8893    35.3435 </r>
       <r>    -0.4224     9.7132    36.6249 </r>
       <r>    -0.3058     4.7394    37.5853 </r>
       <r>    -0.1891     9.1304    38.1679 </r>
       <r>    -0.0724    10.8441    39.4759 </r>
       <r>     0.0442     5.4749    40.2264 </r>
       <r>     0.1609    13.5500    41.7054 </r>
       <r>     0.2776     2.7300    42.0471 </r>
       <r>     0.3942    12.4831    43.1690 </r>
       <r>     0.5109     4.5461    43.8461 </r>
       <r>     0.6276     4.7117    44.3878 </r>
       <r>     0.7442     9.6424    45.2109 </r>
       <r>     0.8609     5.1058    46.2114 </r>
       <r>     0.9776    12.1561    47.0810 </r>
       <r>     1.0942     0.0351    47.9999 </r>
       <r>     1.2109     0.0000    48.0000 </r>
       <r>     1.3276     0.0000    48.0000 </r>
       <r>     1.4442     0.0000    48.0000 </r>
       <r>     1.5609     0.0000    48.0000 </r>
       <r>     1.6776     0.0000    48.0000 </r>
       <r>     1.7942     0.0000    48.0000 </r>
       <r>     1.9109     0.0000    48.0000 </r>
       <r>     2.0276     0.0000    48.0000 </r>
       <r>     2.1442     0.0000    48.0000 </r>
       <r>     2.2609     0.0000    48.0000 </r>
       <r>     2.3776     0.0000    48.0000 </r>
       <r>     2.4942     0.0000    48.0000 </r>
       <r>     2.6109     0.0000    48.0000 </r>
       <r>     2.7276     0.0000    48.0000 </r>
       <r>     2.8442     0.0000    48.0000 </r>
       <r>     2.9609     0.0000    48.0000 </r>
       <r>     3.0776     0.0000    48.0000 </r>
       <r>     3.1942     0.0000    48.0000 </r>
       <r>     3.3109     0.0000    48.0000 </r>
       <r>     3.4276     0.0000    48.0000 </r>
       <r>     3.5442     0.0000    48.0000 </r>
       <r>     3.6609     0.0000    48.0000 </r>
       <r>     3.7776     0.0000    48.0000 </r>
       <r>     3.8942     0.0000    48.0000 </r>
       <r>     4.0109     0.0000    48.0000 </r>
       <r>     4.1276     0.0000    48.0000 </r>
       <r>     4.2442     0.0000    48.0000 </r>
       <r>     4.3609     0.0000    48.0000 </r>
       <r>     4.4776     0.0000    48.0000 </r>
       <r>     4.5942     0.0000    48.0000 </r>
       <r>     4.7109     0.0000    48.0000 </r>
       <r>     4.8276     0.0000    48.0000 </r>
       <r>     4.9442     0.0000    48.0000 </r>
       <r>     5.0609     0.0000    48.0000 </r>
       <r>     5.1776     0.0000    48.0000 </r>
       <r>     5.2942     0.0000    48.0000 </r>
       <r>     5.4109     0.0000    48.0000 </r>
       <r>     5.5276     0.0000    48.0000 </r>
       <r>     5.6442     0.0000    48.0000 </r>
       <r>     5.7609     0.0000    48.0000 </r>
       <r>     5.8776     0.0000    48.0000 </r>
       <r>     5.9942     0.0000    48.0000 </r>
       <r>     6.1109     0.0000    48.0000 </r>
       <r>     6.2276     0.0000    48.0000 </r>
       <r>     6.3442     0.0000    48.0000 </r>
       <r>     6.4609     0.0000    48.0000 </r>
       <r>     6.5776     0.0000    48.0000 </r>
       <r>     6.6942     0.0000    48.0000 </r>
       <r>     6.8109     0.0000    48.0000 </r>
       <r>     6.9276     0.0000    48.0000 </r>
       <r>     7.0442     0.0000    48.0000 </r>
       <r>     7.1609     0.0017    48.0000 </r>
       <r>     7.2776     0.0250    48.0013 </r>
       <r>     7.3942     0.0757    48.0069 </r>
       <r>     7.5109     0.1538    48.0201 </r>
       <r>     7.6276     0.2273    48.0431 </r>
       <r>     7.7442     0.2667    48.0721 </r>
       <r>     7.8609     0.2877    48.1046 </r>
       <r>     7.9776     0.3259    48.1400 </r>
       <r>     8.0942     0.3739    48.1808 </r>
       <r>     8.2109     0.4245    48.2274 </r>
       <r>     8.3276     0.4776    48.2800 </r>
       <r>     8.4442     0.5330    48.3389 </r>
       <r>     8.5609     0.6482    48.4063 </r>
       <r>     8.6776     0.8039    48.4911 </r>
       <r>     8.7942     0.8102    48.5891 </r>
       <r>     8.9109     0.8716    48.6871 </r>
       <r>     9.0276     0.9350    48.7925 </r>
       <r>     9.1442     1.0004    48.9054 </r>
       <r>     9.2609     1.0676    49.0260 </r>
       <r>     9.3776     1.5280    49.1850 </r>
       <r>     9.4942     1.3658    49.3587 </r>
       <r>     9.6109     1.2428    49.5082 </r>
       <r>     9.7276     1.4076    49.6591 </r>
       <r>     9.8443     1.4846    49.8325 </r>
       <r>     9.9609     1.7256    50.0480 </r>
       <r>    10.0776     1.0911    50.1979 </r>
       <r>    10.1943     2.0917    50.3585 </r>
       <r>    10.3109     6.4440    50.7975 </r>
       <r>    10.4276     5.3706    51.9002 </r>
       <r>    10.5443     4.5249    52.3874 </r>
       <r>    10.6609     8.5694    53.1734 </r>
       <r>    10.7776     6.0404    54.0451 </r>
       <r>    10.8943     2.4057    54.4896 </r>
       <r>    11.0109     4.4666    54.8566 </r>
       <r>    11.1276     7.7359    55.6410 </r>
       <r>    11.2443     5.5835    56.1664 </r>
       <r>    11.3609     6.6439    56.8905 </r>
       <r>    11.4776     5.5769    57.6947 </r>
       <r>    11.5943     1.4130    58.0726 </r>
       <r>    11.7109    14.6090    58.9301 </r>
       <r>    11.8276     2.1590    59.6587 </r>
       <r>    11.9443     0.8318    59.8129 </r>
       <r>    12.0609     0.5292    59.8883 </r>
       <r>    12.1776     0.3643    59.9401 </r>
       <r>    12.2943     0.2229    59.9742 </r>
       <r>    12.4109     0.0996    59.9928 </r>
       <r>    12.5276     0.0212    59.9993 </r>
       <r>    12.6443     0.0000    60.0000 </r>
       <r>    12.7609     0.0000    60.0000 </r>
       <r>    12.8776     0.0000    60.0000 </r>
       <r>    12.9943     0.0000    60.0000 </r>
       <r>    13.1109     0.0000    60.0000 </r>
       <r>    13.2276     0.0000    60.0000 </r>
       <r>    13.3443     0.0000    60.0000 </r>
       <r>    13.4609     0.0000    60.0000 </r>
       <r>    13.5776     0.0000    60.0000 </r>
       <r>    13.6943     0.0000    60.0000 </r>
       <r>    13.8109     0.0000    60.0000 </r>
       <r>    13.9276     0.0000    60.0000 </r>
       <r>    14.0443     0.0000    60.0000 </r>
       <r>    14.1609     0.0000    60.0000 </r>
       <r>    14.2776     0.0000    60.0000 </r>
       <r>    14.3943     0.0000    60.0000 </r>
       <r>    14.5109     0.0000    60.0000 </r>
       <r>    14.6276     0.0000    60.0000 </r>
      </set>
     </set>
    </array>
   </total>
  </dos>
 </calculation>
 <structure name="finalpos" >
  <crystal>
   <varray name="basis" >
    <v>       4.91380000       0.00000000       0.00000000 </v>
    <v>      -2.45690000       4.25547563       0.00000000 </v>
    <v>       0.00000000       0.00000000       5.40520000 </v>
   </varray>
   <i name="volume">    113.02573808 </i>
   <varray name="rec_basis" >
    <v>       0.20350849       0.11749568       0.00000000 </v>
    <v>       0.00000000       0.23499136       0.00000000 </v>
    <v>       0.00000000       0.00000000       0.18500703 </v>
   </varray>
  </crystal>
  <varray name="positions" >
   <v>       0.46980000       0.00000000       0.66666667 </v>
   <v>       0.53020000       0.53020000       0.00000000 </v>
   <v>       0.00000000       0.46980000       0.33333333 </v>
   <v>       0.41450000       0.26620000       0.78560000 </v>
   <v>       0.58550000       0.85170000       0.88106667 </v>
   <v>       0.14830000       0.73380000       0.54773333 </v>
   <v>       0.26620000       0.41450000       0.21440000 </v>
   <v>       0.85170000       0.58550000       0.11893333 </v>
   <v>       0.73380000       0.14830000       0.45226667 </v>
  </varray>
 </structure>
</modeling>
