unknown system                          
   1.00000000000000     
     4.913800    0.000000    0.000000
    -2.456900    4.255476    0.000000
     0.000000    0.000000    5.405200
   Si   O 
     3     6
Direct
  0.469800  0.000000  0.666667
  0.530200  0.530200  0.000000
  0.000000  0.469800  0.333333
  0.414500  0.266200  0.785600
  0.585500  0.851700  0.881067
  0.148300  0.733800  0.547733
  0.266200  0.414500  0.214400
  0.851700  0.585500  0.118933
  0.733800  0.148300  0.452267
 
   56   56   56
  1.4665      1.4105      1.4011      1.4258      1.4773      1.5521      1.6486      1.7645      1.8962      2.0392    
  2.1897      2.3442      2.4994      2.6503      2.7908      2.9173      3.0318      3.1446      3.2722      3.4357    
  3.6593      3.9711      4.4085      5.0232      5.8870      7.0886      8.7247      10.885      13.638      17.023    
  21.036      25.615      30.600      35.703      40.494      44.434      46.985      47.748      46.583      43.656    
  39.392      34.337      29.030      23.898      19.226      15.165      11.768      9.0249      6.8818      5.2574    
  4.0557      3.1807      2.5500      2.1009      1.7898      1.5862      1.4103      1.3511      1.3436      1.3765    
  1.4428      1.5393      1.6638      1.8139      1.9854      2.1737      2.3740      2.5813      2.7890      2.9881    
  3.1687      3.3238      3.4520      3.5577      3.6518      3.7500      3.8730      4.0466      4.3014      4.6754    
  5.2178      5.9913      7.0701      8.5298      10.434      12.819      15.684      18.982      22.606      26.374    
  30.015      33.187      35.517      36.685      36.512      35.006      32.366      28.923      25.051      21.099    
  17.334      13.935      11.003      8.5720      6.6282      5.1224      3.9842      3.1377      2.5154      2.0645    
  1.7472      1.5363      1.4009      1.3437      1.3411      1.3829      1.4633      1.5791      1.7289      1.9103    
  2.1200      2.3533      2.6050      2.8687      3.1352      3.3924      3.6274      3.8289      3.9904      4.1098    
  4.1909      4.2435      4.2852      4.3408      4.4399      4.6153      4.9037      5.3488      6.0033      6.9257    
  8.1712      9.7788      11.759      14.083      16.680      19.425      22.145      24.613      26.581      27.814    
  28.146      27.519      26.001      23.768      21.063      18.140      15.225      12.491      10.053      7.9730    
  6.2667      4.9137      3.8686      3.0757      2.4822      2.0457      1.7346      1.5259      1.4262      1.3770    
  1.3832      1.4362      1.5311      1.6657      1.8391      2.0501      2.2966      2.5751      2.8804      3.2050    
  3.5380      3.8652      4.1706      4.4388      4.6562      4.8127      4.9031      4.9310      4.9106      4.8664    
  4.8291      4.8316      4.9068      5.0889      5.4158      5.9296      6.6736      7.6841      8.9800      10.553    
  12.358      14.314      16.303      18.174      19.757      20.885      21.423      21.294      20.502      19.127    
  17.312      15.231      13.058      10.939      8.9860      7.2683      5.8192      4.6400      3.7079      2.9870    
  2.4391      2.0315      1.7389      1.5424      1.4785      1.4436      1.4635      1.5310      1.6424      1.7964    
  1.9931      2.2329      2.5153      2.8385      3.1987      3.5887      3.9969      4.4075      4.8013      5.1576    
  5.4550      5.6737      5.7991      5.8271      5.7673      5.6429      5.4857      5.3313      5.2147      5.1696    
  5.2283      5.4225      5.7840      6.3410      7.1136      8.1050      9.2942      10.631      12.036      13.408    
  14.627      15.576      16.148      16.272      15.922      15.125      13.959      12.533      10.969      9.3835    
  7.8713      6.5006      5.3112      4.3172      3.5119      2.8757      2.3849      2.0169      1.7530      1.5778    
  1.5534      1.5395      1.5788      1.6653      1.7961      1.9713      2.1923      2.4610      2.7785      3.1455    
  3.5604      4.0183      4.5087      5.0155      5.5162      5.9835      6.3867      6.6955      6.8853      6.9430    
  6.8718      6.6910      6.4317      6.1325      5.8344      5.5770      5.3961      5.3215      5.3779      5.5855    
  5.9592      6.5053      7.2163      8.0651      9.0022      9.9580      10.850      11.592      12.105      12.328    
  12.227      11.801      11.088      10.149      9.0631      7.9148      6.7797      5.7188      4.7733      3.9631    
  3.2907      2.7479      2.3225      2.0020      1.7746      1.6286      1.6489      1.6628      1.7277      1.8385    
  1.9929      2.1922      2.4393      2.7374      3.0898      3.4994      3.9677      4.4935      5.0697      5.6814    
  6.3046      6.9052      7.4422      7.8730      8.1614      8.2838      8.2344      8.0257      7.6861      7.2557    
  6.7828      6.3173      5.9049      5.5817      5.3725      5.2933      5.3537      5.5574      5.9007      6.3690    
  6.9326      7.5459      8.1516      8.6877      9.0951      9.3247      9.3433      9.1390      8.7237      8.1292    
  7.4024      6.5979      5.7716      4.9737      4.2422      3.5999      3.0552      2.6076      2.2532      1.9868    
  1.8026      1.6928      1.7630      1.8118      1.9088      2.0498      2.2335      2.4613      2.7373      3.0664    
  3.4535      3.9042      4.4240      5.0160      5.6778      6.3980      7.1530      7.9046      8.6023      9.1902    
  9.6171      9.8455      9.8567      9.6534      9.2591      8.7154      8.0773      7.4063      6.7616      6.1909    
  5.7269      5.3879      5.1821      5.1100      5.1660      5.3380      5.6063      5.9416      6.3045      6.6505    
  6.9354      7.1203      7.1764      7.0880      6.8542      6.4885      6.0156      5.4685      4.8848      4.3015    
  3.7498      3.2517      2.8203      2.4620      2.1788      1.9708      1.8356      1.7686      1.8938      1.9839    
  2.1195      2.2973      2.5167      2.7795      3.0898      3.4531      3.8761      4.3667      4.9345      5.5887    
  6.3329      7.1606      8.0504      8.9635      9.8432      10.621      11.230      11.611      11.729      11.572    
  11.154      10.520      9.7314      8.8610      7.9822      7.1578      6.4335      5.8368      5.3800      5.0635    
  4.8788      4.8119      4.8450      4.9561      5.1176      5.2966      5.4593      5.5749      5.6192      5.5763    
  5.4400      5.2134      4.9075      4.5404      4.1356      3.7183      3.3117      2.9341      2.6002      2.3213    
  2.1054      1.9563      1.8738      1.8549      2.0380      2.1745      2.3549      2.5767      2.8399      3.1463    
  3.4992      3.9035      4.3662      4.8973      5.5101      6.2201      7.0391      7.9677      8.9895      10.067    
  11.143      12.137      12.967      13.552      13.830      13.768      13.371      12.677      11.758      10.698    
  9.5848      8.4988      7.5022      6.6368      5.9238      5.3677      4.9601      4.6843      4.5198      4.4456    
  4.4386      4.4731      4.5217      4.5590      4.5643      4.5227      4.4262      4.2728      4.0661      3.8142    
  3.5305      3.2317      2.9347      2.6539      2.4027      2.1943      2.0406      1.9486      1.9196      1.9511    
  2.1913      2.3770      2.6081      2.8819      3.1985      3.5598      3.9671      4.4232      4.9341      5.5103    
  6.1679      6.9277      7.8105      8.8274      9.9706      11.208      12.482      13.710      14.792      15.626    
  16.120      16.216      15.895      15.188      14.168      12.933      11.588      10.232      8.9480      7.7966    
  6.8127      6.0080      5.3765      4.8999      4.5544      4.3155      4.1604      4.0663      4.0092      3.9663    
  3.9185      3.8518      3.7569      3.6296      3.4705      3.2829      3.0730      2.8507      2.6284      2.4187    
  2.2337      2.0866      1.9901      1.9523      1.9750      2.0559      2.3478      2.5837      2.8705      3.2049    
  3.5864      4.0158      4.4926      5.0159      5.5886      6.2206      6.9288      7.7373      8.6743      9.7630    
  11.008      12.389      13.852      15.314      16.666      17.783      18.547      18.865      18.691      18.035    
  16.962      15.579      14.011      12.378      10.791      9.3324      8.0573      6.9877      6.1211      5.4389    
  4.9135      4.5160      4.2209      4.0053      3.8466      3.7222      3.6132      3.5050      3.3870      3.2534    
  3.1035      2.9398      2.7655      2.5850      2.4067      2.2423      2.1048      2.0065      1.9589      1.9692    
  2.0388      2.1656      2.5016      2.7875      3.1332      3.5361      3.9941      4.5061      5.0696      5.6794    
  6.3337      7.0389      7.8114      8.6759      9.6648      10.811      12.135      13.630      15.255      16.932    
  18.549      19.967      21.039      21.639      21.686      21.159      20.102      18.622      16.857      14.956    
  13.055      11.270      9.6799      8.3215      7.2000      6.2982      5.5858      5.0283      4.5941      4.2575    
  3.9957      3.7857      3.6075      3.4455      3.2880      3.1267      2.9588      2.7868      2.6146      2.4451    
  2.2839      2.1416      2.0316      1.9659      1.9535      2.0004      2.1082      2.2755      2.6485      2.9825    
  3.3876      3.8634      4.4070      5.0150      5.6826      6.4011      7.1624      7.9667      8.8262      9.7639    
  10.813      12.011      13.393      14.968      16.712      18.562      20.412      22.118      23.513      24.439    
  24.774      24.457      23.504      22.002      20.097      17.959      15.758      13.639      11.712      10.037    
  8.6329      7.4892      6.5756      5.8518      5.2770      4.8180      4.4489      4.1467      3.8899      3.6616    
  3.4496      3.2440      3.0388      2.8346      2.6363      2.4492      2.2785      2.1343      2.0298      1.9764    
  1.9813      2.0492      2.1829      2.3827      2.7859      3.1630      3.6238      4.1715      4.8047      5.5187    
  6.3061      7.1552      8.0522      8.9883      9.9677      11.007      12.136      13.393      14.820      16.442    
  18.257      20.220      22.242      24.189      25.886      27.150      27.819      27.789      27.030      25.603    
  23.644      21.338      18.879      16.446      14.178      12.167      10.455      9.0431      7.9076      7.0052    
  6.2852      5.7026      5.2239      4.8233      4.4781      4.1696      3.8853      3.6161      3.3547      3.0986    
  2.8522      2.6223      2.4161      2.2433      2.1175      2.0511      2.0514      2.1222      2.2669      2.4879    
  2.9127      3.3226      3.8302      4.4427      5.1629      5.9868      6.9051      7.9035      8.9631      10.066    
  11.206      12.387      13.631      14.968      16.441      18.088      19.925      21.932      24.047      26.155    
  28.093      29.666      30.681      30.988      30.507      29.258      27.354      24.978      22.343      19.650    
  17.072      14.732      12.703      11.007      9.6307      8.5338      7.6602      6.9524      6.3643      5.8625    
  5.4207      5.0179      4.6409      4.2823      3.9378      3.6052      3.2872      2.9906      2.7232      2.4946    
  2.3187      2.2107      2.1803      2.2319      2.3691      2.5954      3.0307      3.4564      3.9962      4.6605    
  5.4576      6.3873      7.4397      8.5981      9.8406      11.142      12.482      13.852      15.256      16.713    
  18.255      19.923      21.747      23.733      25.850      28.018      30.100      31.909      33.237      33.893    
  33.748      32.770      31.036      28.710      26.008      23.151      20.336      17.717      15.397      13.427    
  11.809      10.510      9.4759      8.6408      7.9452      7.3430      6.8002      6.2914      5.8008      5.3229    
  4.8584      4.4105      3.9841      3.5868      3.2272      2.9143      2.6606      2.4820      2.3920      2.3979    
  2.5037      2.7137      3.1468      3.5645      4.1161      4.8137      5.6707      6.6918      7.8695      9.1867    
  10.619      12.138      13.712      15.316      16.934      18.564      20.220      21.931      23.731      25.649    
  27.687      29.805      31.908      33.841      35.400      36.369      36.577      35.937      34.473      32.319    
  29.681      26.788      23.853      21.053      18.519      16.327      14.500      13.017      11.830      10.872    
  10.074      9.3762      8.7335      8.1116      7.4897      6.8617      6.2338      5.6178      5.0270      4.4751    
  3.9752      3.5376      3.1725      2.8931      2.7132      2.6434      2.6897      2.8563      3.2757      3.6564    
  4.1931      4.8999      5.7922      6.8798      8.1598      9.6179      11.231      12.970      14.795      16.667    
  18.549      20.412      22.243      24.047      25.850      27.686      29.587      31.557      33.547      35.436    
  37.059      38.222      38.738      38.475      37.392      35.558      33.136      30.353      27.447      24.612    
  21.994      19.688      17.733      16.124      14.820      13.762      12.878      12.100      11.366      10.632    
  9.8671      9.0620      8.2258      7.3808      6.5541      5.7724      5.0590      4.4314      3.9010      3.4775    
  3.1716      2.9932      2.9488      3.0417      3.4384      3.7505      4.2409      4.9255      5.8213      6.9405    
  8.2862      9.8505      11.616      13.554      15.627      17.783      19.964      22.115      24.187      26.156    
  28.019      29.805      31.558      33.300      34.999      36.603      38.030      39.154      39.819      39.878    
  39.241      37.904      35.955      33.553      30.898      28.211      25.687      23.428      21.483      19.856    
  18.518      17.419      16.491      15.663      14.861      14.027      13.119      12.117      11.032      9.8957    
  8.7523      7.6483      6.6241      5.7114      4.9308      4.2940      3.8082      3.4781      3.3061      3.2924    
  3.6603      3.8711      4.2805      4.9062      5.7663      6.8749      8.2401      9.8621      11.732      13.829    
  16.118      18.545      21.037      23.510      25.884      28.093      30.101      31.909      33.547      35.000    
  36.248      37.315      38.228      38.978      39.500      39.686      39.431      38.672      37.418      35.737    
  33.743      31.578      29.406      27.401      25.655      24.176      22.942      21.911      21.024      20.209    
  19.387      18.487      17.450      16.246      14.881      13.393      11.846      10.313      8.8608      7.5420    
  6.3953      5.4430      4.6936      4.1465      3.7965      3.6362      3.9709      4.0449      4.3375      4.8649    
  5.6461      6.6974      8.0311      9.6549      11.569      13.764      16.211      18.863      21.640      24.440    
  27.151      29.667      31.910      33.841      35.436      36.603      37.316      37.644      37.726      37.705    
  37.673      37.635      37.530      37.280      36.826      36.140      35.219      34.083      32.777      31.397    
  30.090      28.972      28.034      27.240      26.538      25.855      25.109      24.213      23.092      21.701    
  20.036      18.139      16.097      14.015      11.997      10.128      8.4716      7.0686      5.9369      5.0760    
  4.4733      4.1107      4.4076      4.3010      4.4395      4.8300      5.4898      6.4371      7.6878      9.2553    
  11.148      13.366      15.893      18.690      21.688      24.778      27.823      30.684      33.237      35.399    
  37.058      38.028      38.228      37.727      36.740      35.570      34.512      33.765      33.405      33.402    
  33.675      34.113      34.587      34.957      35.099      34.952      34.560      34.075      33.663      33.327    
  33.016      32.659      32.161      31.413      30.313      28.789      26.824      24.465      21.823      19.050    
  16.301      13.709      11.370      9.3503      7.6836      6.3772      5.4157      4.7702      5.0223      4.6757    
  4.6168      4.8334      5.3333      6.1340      7.2536      8.7090      10.514      12.676      15.192      18.038    
  21.161      24.459      27.790      30.988      33.891      36.368      38.221      39.153      38.978      37.706    
  35.572      32.995      30.484      28.497      27.335      27.121      27.824      29.301      31.313      33.546    
  35.660      37.373      38.544      39.226      39.632      39.997      40.338      40.579      40.602      40.257    
  39.388      37.872      35.661      32.803      29.444      25.802      22.109      18.570      15.333      12.494    
  10.108      8.1916      6.7316      5.6914      5.8863      5.2177      4.9053      4.9083      5.2144      5.8324    
  6.7794      8.0728      9.7288      11.761      14.176      16.968      20.104      23.502      27.027      30.504    
  33.744      36.576      38.739      39.820      39.500      37.673      34.513      30.485      26.268      22.591    
  20.057      19.034      19.650      21.815      25.242      29.467      33.915      38.022      41.385      43.873    
  45.632      46.993      48.258      49.420      50.334      50.780      50.507      49.292      47.011      43.689    
  39.511      34.783      29.863      25.072      20.648      16.735      13.405      10.682      8.5520      6.9743    
  7.0882      5.9904      5.3494      5.0899      5.1685      5.5740      6.3150      7.4062      8.8632      10.702    
  12.939      15.583      18.620      21.998      25.599      29.256      32.768      35.936      38.477      39.881    
  39.687      37.634      33.765      28.497      22.591      17.001      12.646      10.216      10.092      12.348    
  16.753      22.775      29.633      36.456      42.508      47.383      51.079      53.927      56.397      58.795    
  61.009      62.741      63.596      63.180      61.217      57.640      52.640      46.630      40.144      33.698    
  27.688      22.349      17.786      14.018      11.019      8.7344      8.7249      7.0688      6.0029      5.4166    
  5.2279      5.3938      5.9041      6.7645      7.9870      9.5883      11.589      14.008      16.851      20.091    
  23.643      27.357      31.038      34.474      37.393      39.243      39.432      37.529      33.403      27.335    
  20.056      12.645      6.2875      2.0102     0.51370      2.1281      6.7997      14.057      23.020      32.547    
  41.531      49.204      55.324      60.147      64.221      68.107      71.981      75.503      78.117      79.192    
  78.195      74.858      69.283      61.951      53.603      45.039      36.927      29.685      23.495      18.377    
  14.272      11.089      10.886      8.5290      6.9245      5.9303      5.4235      5.3206      5.5812      6.1937    
  7.1619      8.4996      10.228      12.373      14.950      17.956      21.339      24.984      28.716      32.322    
  35.558      37.904      38.672      37.278      33.401      27.122      19.035      10.214      2.0083     -4.2699    
 -7.5915     -7.3168     -3.2279      4.4061      14.765      26.562      38.351      48.954      57.787      64.933    
  70.961      76.590      82.324      88.011      92.966      96.296      97.126      94.848      89.325      80.979    
  70.711      59.660      48.892      39.158      30.823      23.952      18.444      14.141      13.640      10.434    
  8.1698      6.6734      5.7856      5.3785      5.3717      5.7275      6.4353      7.5009      8.9428      10.786    
  13.055      15.761      18.883      22.347      26.011      29.682      33.133      35.952      37.417      36.824    
  33.673      27.826      19.654      10.093     0.51211     -7.5930     -12.909     -14.482     -11.780     -4.7663    
  5.9670      19.176      33.210      46.501      58.048      67.650      75.800      83.327      90.964      98.925    
  106.57      112.77      116.31      116.13      111.67      103.10      91.326      77.761      63.951      51.147    
  40.073      30.946      23.661      17.976      17.024      12.820      9.7779      7.6827      6.3420      5.5870    
  5.2927      5.3866      5.8369      6.6357      7.7926      9.3303      11.275      13.648      16.451      19.650    
  23.149      26.784      30.348      33.549      35.737      36.141      34.113      29.301      21.818      12.351    
  2.1278     -7.3180     -14.481     -18.133     -17.427     -11.980     -2.0324      11.415      26.713      42.028    
  55.937      67.857      78.075      87.437      96.866      106.89      117.17      126.52      133.40      136.29    
  134.12      126.56      114.27      98.747      81.961      65.763      51.431      39.522      30.028      22.651    
  21.036      15.685      11.759      8.9781      7.1131      5.9609      5.3540      5.1801      5.3791      5.9245    
  6.8120      8.0564      9.6835      11.719      14.181      17.068      20.330      23.849      27.445      30.896    
  33.746      35.224      34.590      31.312      25.241      16.754      6.7992     -3.2295     -11.779     -17.424    
 -19.040     -15.901     -7.8391      4.5394      19.816      36.096      51.635      65.421      77.412      88.336    
  99.222      110.86      123.31      135.56      145.92      152.61      153.92      148.74      137.25      120.92    
  101.91      82.529      64.748      49.669      37.567      28.177      25.613      18.983      14.085      10.551    
  8.1031      6.5063      5.5590      5.1087      5.0617      5.3692      6.0108      6.9883      8.3215      10.038    
  12.166      14.725      17.710      21.053      24.617      28.214      31.580      34.087      34.961      33.544    
  29.463      22.773      14.057      4.4039     -4.7675     -11.977     -15.897     -15.492     -10.185     -.10487    
  13.746      29.654      45.739      60.621      73.846      85.874      97.706      110.32      124.15      138.57    
  151.96      162.47      167.97      166.53      157.45      141.74      121.77      100.14      79.298      61.034    
  46.110      34.465      30.597      22.605      16.682      12.359      9.2920      7.2158      5.9030      5.1664    
  4.8765      4.9599      5.3799      6.1234      7.1986      8.6302      10.451      12.697      15.393      18.522    
  22.004      25.693      29.405      32.776      35.099      35.659      33.911      29.631      23.022      14.765    
  5.9645     -2.0331     -7.8363     -10.183     -8.1264     -1.3001      9.8256      23.935      39.254      54.185    
  67.873      80.399      92.570      105.43      119.70      135.20      150.63      164.18      173.68      176.67    
  171.49      158.25      138.94      116.52      93.682      72.777      55.194      41.254      35.702      26.372    
  19.427      14.317      10.630      8.0632      6.3705      5.3401      4.8106      4.6820      4.9011      5.4413    
  6.2972      7.4861      9.0418      11.007      13.427      16.330      19.695      23.433      27.397      31.390    
  34.949      37.371      38.020      36.456      32.551      26.567      19.176      11.412      4.5384     -.10456    
 -1.3010      1.7648      9.1973      20.234      33.435      47.210      60.411      72.710      84.586      96.979    
  110.76      126.17      142.36      157.63      170.06      177.13      176.53      167.34      150.66      129.20    
  105.98      83.587      63.997      48.061      40.493      30.013      22.144      16.305      12.037      8.9999    
  6.9322      5.6087      4.8456      4.5175      4.5533      4.9148      5.5854      6.5730      7.9078      9.6356    
  11.814      14.501      17.733      21.482      25.650      30.083      34.557      38.546      41.387      42.508    
  41.533      38.356      33.212      26.711      19.814      13.746      9.8236      9.1940      12.491      19.567    
  29.501      40.937      52.631      63.915      74.875      86.189      98.716      112.99      128.62      144.27    
  158.12      168.05      171.60      167.11      154.61      136.01      114.21      91.895      71.425      54.182    
  44.434      33.186      24.612      18.175      13.409      9.9568      7.5442      5.9425      4.9577      4.4447    
  4.3140      4.5167      5.0288      5.8497      7.0040      8.5377      10.516      13.018      16.119      19.851    
  24.171      28.969      34.077      39.232      43.878      47.383      49.202      48.954      46.501      42.026    
  36.095      29.656      23.937      20.231      19.564      22.363      28.303      36.456      45.704      55.197    
  64.665      74.436      85.196      97.571      111.57      126.32      140.24      151.49      157.96      157.72    
  149.98      135.62      116.88      96.291      76.343      58.806      46.986      35.517      26.580      19.757    
  14.629      10.850      8.1501      6.3041      5.1188      4.4389      4.1595      4.2214      4.5959      5.2769    
  6.2831      7.6599      9.4776      11.829      14.815      18.514      22.941      28.037      33.668      39.638    
  45.636      51.079      55.320      57.783      58.045      55.935      51.633      45.741      39.259      33.437    
  29.499      28.301      30.078      34.425      40.536      47.582      55.060      62.960      71.688      81.792    
  93.488      106.31      119.18      130.49      138.44      141.28      137.83      128.13      113.49      95.960    
  77.895      61.208      47.750      36.688      27.815      20.884      15.576      11.593      8.6873      6.6499    
  5.2971      4.4736      4.0655      4.0049      4.2592      4.8199      5.7024      6.9510      8.6396      10.869    
  13.759      17.417      21.914      27.247      33.331      39.998      46.992      53.924      60.143      64.930    
  67.650      67.857      65.420      60.621      54.188      47.213      40.938      36.456      34.425      34.937    
  37.593      41.758      46.873      52.684      59.305      67.087      76.262      86.636      97.555      107.89    
  116.16      120.79      120.57      115.02      104.67      90.954      75.786      60.970      46.587      36.516    
  28.147      21.421      16.147      12.106      9.0954      6.9349      5.4594      4.5223      4.0088      3.8452    
  3.9953      4.4501      5.2251      6.3645      7.9447      10.073      12.877      16.492      21.028      26.543    
  33.018      40.333      48.251      56.392      64.219      70.962      75.804      78.079      77.415      73.845    
  67.871      60.410      52.630      45.704      40.537      37.594      36.867      38.010      40.559      44.161    
  48.705      54.311      61.095      68.968      77.571      86.187      93.754      99.021      100.83      98.481    
  91.990      82.167      70.377      58.113      43.661      35.008      27.518      21.292      16.270      12.328    
  9.3252      7.1200      5.5746      4.5596      3.9668      3.7215      3.7844      4.1459      4.8232      5.8628    
  7.3437      9.3773      12.101      15.664      20.211      25.857      32.658      40.573      49.414      58.792    
  68.109      76.594      83.331      87.442      88.339      85.875      80.396      72.706      63.912      55.196    
  47.582      41.760      38.011      36.268      36.246      37.621      40.166      43.808      48.491      54.119    
  60.482      67.148      73.421      78.400      81.141      80.911      77.439      71.045      62.565      53.093    
  39.393      32.364      25.997      20.499      15.921      12.227      9.3443      7.1764      5.6184      4.5643    
  3.9195      3.6138      3.6073      3.8893      4.4773      5.4196      6.7997      8.7344      11.368      14.862    
  19.387      25.107      32.157      40.599      50.333      61.013      71.987      82.328      90.965      96.865    
  99.220      97.705      92.569      84.586      74.874      64.664      55.060      46.873      40.560      36.246    
  33.823      33.058      33.714      35.580      38.465      42.214      46.652      51.504      56.328      60.522    
  63.389      64.302      62.882      59.140      53.497      46.655      34.333      28.916      23.764      19.126    
  15.127      11.803      9.1407      7.0885      5.5754      4.5220      3.8522      3.5058      3.4460      3.6623    
  4.1704      5.0177      6.2899      8.1105      10.632      14.028      18.486      24.210      31.410      40.256    
  50.783      62.747      75.510      88.014      98.922      106.88      110.85      110.32      105.43      96.981    
  86.193      74.439      62.961      52.683      44.161      37.620      33.058      30.330      29.221      29.460    
  30.790      32.991      35.869      39.204      42.703      45.966      48.515      49.864      49.648      47.731    
  44.257      39.617      29.023      25.045      21.062      17.316      13.963      11.090      8.7244      6.8546    
  5.4394      4.4251      3.7566      3.3874      3.2876      3.4492      3.8866      4.6429      5.8009      7.4881    
  9.8664      13.119      17.449      23.090      30.312      39.390      50.511      63.599      78.119      92.965    
  106.56      117.17      123.31      124.15      119.70      110.76      98.719      85.200      71.690      59.304    
  48.704      40.166      33.713      29.220      26.473      25.212      25.161      26.062      27.683      29.807    
  32.202      34.594      36.652      38.024      38.404      37.610      35.640      32.675      23.894      21.096    
  18.142      15.238      12.538      10.148      8.1266      6.4874      5.2133      4.2720      3.6292      3.2542    
  3.1265      3.2418      3.6149      4.2841      5.3248      6.8613      9.0610      12.118      16.247      21.700    