unknown system                          
   1.00000000000000     
     4.913800    0.000000    0.000000
    -2.456900    4.255476    0.000000
     0.000000    0.000000    5.405200
   Si   O 
     3     6
Direct
  0.469800  0.000000  0.666667
  0.530200  0.530200  0.000000
  0.000000  0.469800  0.333333
  0.414500  0.266200  0.785600
  0.585500  0.851700  0.881067
  0.148300  0.733800  0.547733
  0.266200  0.414500  0.214400
  0.851700  0.585500  0.118933
  0.733800  0.148300  0.452267
 
   56   56   56
 0.14665084491E+01 0.14105138230E+01 0.14011400009E+01 0.14258323897E+01 0.14772759733E+01
 0.15521303864E+01 0.16486163193E+01 0.17644764124E+01 0.18961518070E+01 0.20392442912E+01
 0.21896700208E+01 0.23441906431E+01 0.24994025385E+01 0.26503001502E+01 0.27908428871E+01
 0.29172529149E+01 0.30318368378E+01 0.31446113540E+01 0.32722227848E+01 0.34357288793E+01
 0.36592522009E+01 0.39711489977E+01 0.44084534699E+01 0.50232380675E+01 0.58869835777E+01
 0.70886032879E+01 0.87246719518E+01 0.10884896341E+02 0.13638311309E+02 0.17023141444E+02
 0.21036435366E+02 0.25614503676E+02 0.30599602524E+02 0.35703367861E+02 0.40493623610E+02
 0.44433846267E+02 0.46985467930E+02 0.47748173670E+02 0.46582503041E+02 0.43656400928E+02
 0.39391562752E+02 0.34336923022E+02 0.29029701355E+02 0.23898133657E+02 0.19225841225E+02
 0.15164526035E+02 0.11767944417E+02 0.90248902832E+01 0.68818263007E+01 0.52574235315E+01
 0.40556935771E+01 0.31807494266E+01 0.25500147821E+01 0.21009231933E+01 0.17898312787E+01
 0.15862173532E+01 0.14102812898E+01 0.13511241292E+01 0.13436386968E+01 0.13765181419E+01
 0.14428499355E+01 0.15392636804E+01 0.16638149002E+01 0.18138869923E+01 0.19854398249E+01
 0.21737011014E+01 0.23739954855E+01 0.25813447503E+01 0.27890482487E+01 0.29880640798E+01
 0.31686824206E+01 0.33238489389E+01 0.34519601998E+01 0.35577461084E+01 0.36517919983E+01
 0.37499503730E+01 0.38730325383E+01 0.40465978635E+01 0.43013681336E+01 0.46753858016E+01
 0.52177650630E+01 0.59913132607E+01 0.70700610580E+01 0.85297715883E+01 0.10433696647E+02
 0.12818519653E+02 0.15683603746E+02 0.18981625836E+02 0.22605861898E+02 0.26373634264E+02
 0.30015437344E+02 0.33186871459E+02 0.35516532876E+02 0.36685480552E+02 0.36512154554E+02
 0.35006292871E+02 0.32366411907E+02 0.28922517503E+02 0.25051252742E+02 0.21098617670E+02
 0.17333559551E+02 0.13935405034E+02 0.11003188511E+02 0.85720381496E+01 0.66282072431E+01
 0.51223915651E+01 0.39841583316E+01 0.31377221179E+01 0.25153772483E+01 0.20644653569E+01
 0.17471895402E+01 0.15362630909E+01 0.14009125477E+01 0.13437395764E+01 0.13410613551E+01
 0.13829397717E+01 0.14632853709E+01 0.15791416868E+01 0.17288823291E+01 0.19103391106E+01
 0.21199817645E+01 0.23532614217E+01 0.26049971803E+01 0.28686926588E+01 0.31351941723E+01
 0.33924380434E+01 0.36273577760E+01 0.38289293860E+01 0.39903695930E+01 0.41098474358E+01
 0.41908818101E+01 0.42434694659E+01 0.42852062366E+01 0.43408059195E+01 0.44399131498E+01
 0.46153054142E+01 0.49037036428E+01 0.53488217994E+01 0.60032988205E+01 0.69256680356E+01
 0.81711599925E+01 0.97787704876E+01 0.11758748569E+02 0.14083231121E+02 0.16679685052E+02
 0.19425468456E+02 0.22144597635E+02 0.24613058651E+02 0.26581025679E+02 0.27814389166E+02
 0.28146131658E+02 0.27518858026E+02 0.26000747424E+02 0.23768237088E+02 0.21062948505E+02
 0.18139927492E+02 0.15224961471E+02 0.12491062955E+02 0.10053174448E+02 0.79729989027E+01
 0.62666740316E+01 0.49136565286E+01 0.38685667228E+01 0.30757103399E+01 0.24822493313E+01
 0.20456638795E+01 0.17346193032E+01 0.15259027519E+01 0.14262233314E+01 0.13769861039E+01
 0.13831569684E+01 0.14362190760E+01 0.15311358873E+01 0.16657128095E+01 0.18390651323E+01
 0.20500854842E+01 0.22965873390E+01 0.25750578575E+01 0.28803700817E+01 0.32049706773E+01
 0.35379600347E+01 0.38651522554E+01 0.41706110440E+01 0.44388084862E+01 0.46562428065E+01
 0.48126570494E+01 0.49030872117E+01 0.49309916378E+01 0.49106286188E+01 0.48664100434E+01
 0.48291321942E+01 0.48316336708E+01 0.49068338553E+01 0.50889245025E+01 0.54157922208E+01
 0.59296411024E+01 0.66736168916E+01 0.76840644013E+01 0.89799774131E+01 0.10552587728E+02
 0.12358045903E+02 0.14314498076E+02 0.16303195635E+02 0.18173878310E+02 0.19756969498E+02
 0.20885208196E+02 0.21422812343E+02 0.21294169975E+02 0.20501831154E+02 0.19127004642E+02
 0.17312126075E+02 0.15231180595E+02 0.13057527912E+02 0.10939106763E+02 0.89859917525E+01
 0.72683060185E+01 0.58192059258E+01 0.46399963120E+01 0.37079307378E+01 0.29870154614E+01
 0.24391195073E+01 0.20314748634E+01 0.17389162160E+01 0.15423515929E+01 0.14784801476E+01
 0.14435793469E+01 0.14634695904E+01 0.15310483985E+01 0.16424068063E+01 0.17963649631E+01
 0.19931160386E+01 0.22329123977E+01 0.25152932836E+01 0.28385265008E+01 0.31987406340E+01
 0.35887145990E+01 0.39969068701E+01 0.44074605757E+01 0.48012977710E+01 0.51575777199E+01
 0.54549952070E+01 0.56737089004E+01 0.57991466081E+01 0.58271151865E+01 0.57673466970E+01
 0.56428948987E+01 0.54857215532E+01 0.53312811010E+01 0.52147404355E+01 0.51696323644E+01
 0.52282522775E+01 0.54225343532E+01 0.57839502903E+01 0.63410052178E+01 0.71135943796E+01
 0.81050216325E+01 0.92941791064E+01 0.10630912539E+02 0.12036293465E+02 0.13407604592E+02
 0.14627272993E+02 0.15575731126E+02 0.16148023818E+02 0.16271758759E+02 0.15921596701E+02
 0.15125367184E+02 0.13959254730E+02 0.12532952832E+02 0.10969117256E+02 0.93835339670E+01
 0.78713338807E+01 0.65005879459E+01 0.53112197892E+01 0.43172161689E+01 0.35118730797E+01
 0.28757277766E+01 0.23848971148E+01 0.20169136503E+01 0.17529975151E+01 0.15778333432E+01
 0.15534492827E+01 0.15395466396E+01 0.15788092414E+01 0.16653007047E+01 0.17961179972E+01
 0.19712616435E+01 0.21922953866E+01 0.24609573650E+01 0.27785476856E+01 0.31455271490E+01
 0.35604487359E+01 0.40182645232E+01 0.45087303289E+01 0.50155130833E+01 0.55162404416E+01
 0.59834787935E+01 0.63866701815E+01 0.66955103339E+01 0.68852599475E+01 0.69429815103E+01
 0.68718262974E+01 0.66909709626E+01 0.64317429374E+01 0.61325479716E+01 0.58343789106E+01
 0.55770221568E+01 0.53960581368E+01 0.53214507917E+01 0.53778842590E+01 0.55854995642E+01
 0.59591710314E+01 0.65052765983E+01 0.72162846194E+01 0.80650879693E+01 0.90021838035E+01
 0.99580024167E+01 0.10849993510E+02 0.11592162419E+02 0.12105387787E+02 0.12328149353E+02
 0.12226644883E+02 0.11801447609E+02 0.11087732928E+02 0.10148500903E+02 0.90631225034E+01
 0.79147899202E+01 0.67796555099E+01 0.57187907818E+01 0.47732664621E+01 0.39630849530E+01
 0.32906981047E+01 0.27478833082E+01 0.23224787585E+01 0.20020364171E+01 0.17745831547E+01
 0.16286169846E+01 0.16488790108E+01 0.16628238649E+01 0.17277038464E+01 0.18384623855E+01
 0.19929493611E+01 0.21922130509E+01 0.24392558254E+01 0.27374194927E+01 0.30898245068E+01
 0.34993569409E+01 0.39677448113E+01 0.44935122541E+01 0.50696516864E+01 0.56814358484E+01
 0.63046242463E+01 0.69052182602E+01 0.74421552456E+01 0.78730168576E+01 0.81613742493E+01
 0.82837926788E+01 0.82344146734E+01 0.80257311981E+01 0.76860708382E+01 0.72557465355E+01
 0.67827605229E+01 0.63172708500E+01 0.59049297533E+01 0.55816794869E+01 0.53724828181E+01
 0.52933378366E+01 0.53537360711E+01 0.55574149381E+01 0.59007393335E+01 0.63690183843E+01
 0.69325877710E+01 0.75459089235E+01 0.81515851469E+01 0.86876609883E+01 0.90951469090E+01
 0.93247340283E+01 0.93432557163E+01 0.91390366291E+01 0.87236811687E+01 0.81292445704E+01
 0.74024150704E+01 0.65978836240E+01 0.57715810697E+01 0.49736729204E+01 0.42422471340E+01
 0.35999369959E+01 0.30552365120E+01 0.26076464798E+01 0.22531536989E+01 0.19868289039E+01
 0.18026012885E+01 0.16927833581E+01 0.17630379843E+01 0.18117862833E+01 0.19087825312E+01
 0.20498374952E+01 0.22334537991E+01 0.24612786424E+01 0.27373174472E+01 0.30664009191E+01
 0.34535328118E+01 0.39042202908E+01 0.44239724906E+01 0.50159640852E+01 0.56777726206E+01
 0.63980260152E+01 0.71530209178E+01 0.79046226662E+01 0.86022659662E+01 0.91901546175E+01
 0.96171387332E+01 0.98455094918E+01 0.98566612029E+01 0.96533660841E+01 0.92591297722E+01
 0.87154330390E+01 0.80772640234E+01 0.74062793770E+01 0.67615688391E+01 0.61909436152E+01
 0.57268751178E+01 0.53878746077E+01 0.51820901511E+01 0.51100399194E+01 0.51659704799E+01
 0.53379573614E+01 0.56063359003E+01 0.59415639375E+01 0.63045035633E+01 0.66505200700E+01
 0.69353629790E+01 0.71203306804E+01 0.71764493478E+01 0.70879909506E+01 0.68542386331E+01
 0.64885373088E+01 0.60156139370E+01 0.54685092355E+01 0.48848077298E+01 0.43015115065E+01
 0.37497590069E+01 0.32516710198E+01 0.28203228144E+01 0.24619696154E+01 0.21788198684E+01
 0.19707822040E+01 0.18356304184E+01 0.17686180478E+01 0.18937919299E+01 0.19838614695E+01
 0.21194560713E+01 0.22972973458E+01 0.25166915343E+01 0.27794746206E+01 0.30897538742E+01
 0.34531117724E+01 0.38760749575E+01 0.43666532036E+01 0.49345346043E+01 0.55887372663E+01
 0.63329425987E+01 0.71605520859E+01 0.80503985442E+01 0.89634893464E+01 0.98431554260E+01
 0.10621325742E+02 0.11229732749E+02 0.11611412512E+02 0.11729272951E+02 0.11571588666E+02
 0.11154480192E+02 0.10520269338E+02 0.97313701635E+01 0.88609795485E+01 0.79822232744E+01
 0.71578409832E+01 0.64335166874E+01 0.58368098435E+01 0.53799898850E+01 0.50634768848E+01
 0.48788465263E+01 0.48119378435E+01 0.48449791344E+01 0.49560789897E+01 0.51175510291E+01
 0.52966188754E+01 0.54593065923E+01 0.55749209762E+01 0.56191804260E+01 0.55762672114E+01
 0.54399715446E+01 0.52133582403E+01 0.49075011722E+01 0.45404265205E+01 0.41355773736E+01
 0.37183252624E+01 0.33116680560E+01 0.29341008617E+01 0.26001825439E+01 0.23213363419E+01
 0.21054319921E+01 0.19562535644E+01 0.18738001079E+01 0.18548766244E+01 0.20380499089E+01
 0.21744828575E+01 0.23549498966E+01 0.25767070817E+01 0.28398617606E+01 0.31462824800E+01
 0.34991769144E+01 0.39034824987E+01 0.43662395103E+01 0.48972910304E+01 0.55100938928E+01
 0.62201040185E+01 0.70390938295E+01 0.79677059706E+01 0.89895414354E+01 0.10067482503E+02
 0.11142502518E+02 0.12137418046E+02 0.12967028584E+02 0.13551641184E+02 0.13829732344E+02
 0.13768392652E+02 0.13370793725E+02 0.12677290827E+02 0.11757663890E+02 0.10697549833E+02
 0.95848440067E+01 0.84988416960E+01 0.75022141781E+01 0.66367518096E+01 0.59238000029E+01
 0.53677388521E+01 0.49601344838E+01 0.46842578833E+01 0.45198071631E+01 0.44455533078E+01
 0.44386120767E+01 0.44731259103E+01 0.45217166838E+01 0.45589935674E+01 0.45642547619E+01
 0.45227209585E+01 0.44261733211E+01 0.42727868244E+01 0.40660528589E+01 0.38142145621E+01
 0.35304761934E+01 0.32316648697E+01 0.29346513657E+01 0.26539275830E+01 0.24026771469E+01
 0.21942850747E+01 0.20405947210E+01 0.19485991529E+01 0.19196190645E+01 0.19510632044E+01
 0.21913013026E+01 0.23769824136E+01 0.26081345075E+01 0.28818918442E+01 0.31985321109E+01
 0.35597521622E+01 0.39670983189E+01 0.44232113094E+01 0.49340907886E+01 0.55103368148E+01
 0.61679204098E+01 0.69277097903E+01 0.78104890223E+01 0.88273803598E+01 0.99705886931E+01
 0.11208168649E+02 0.12482176369E+02 0.13710091585E+02 0.14792202923E+02 0.15625502486E+02
 0.16120337315E+02 0.16216296866E+02 0.15895430768E+02 0.15188412071E+02 0.14168239809E+02
 0.12933178159E+02 0.11588270554E+02 0.10232154234E+02 0.89480292266E+01 0.77965526994E+01
 0.68126646370E+01 0.60080219289E+01 0.53764885960E+01 0.48999400720E+01 0.45543796995E+01
 0.43154631451E+01 0.41604096414E+01 0.40663098550E+01 0.40091984241E+01 0.39662599472E+01
 0.39185454869E+01 0.38518466974E+01 0.37568756834E+01 0.36296042980E+01 0.34704920848E+01
 0.32829072639E+01 0.30730149436E+01 0.28506748894E+01 0.26283817290E+01 0.24186868164E+01
 0.22337285389E+01 0.20865925506E+01 0.19900514814E+01 0.19523105303E+01 0.19750321381E+01
 0.20558657652E+01 0.23477518450E+01 0.25837030610E+01 0.28704682088E+01 0.32049180449E+01
 0.35864162292E+01 0.40158303182E+01 0.44926468339E+01 0.50159029077E+01 0.55886018169E+01
 0.62205641717E+01 0.69287765806E+01 0.77372855098E+01 0.86743436020E+01 0.97630281994E+01
 0.11008453650E+02 0.12388760431E+02 0.13851655765E+02 0.15314006390E+02 0.16665888564E+02
 0.17783109269E+02 0.18546956683E+02 0.18865354019E+02 0.18691252463E+02 0.18034646087E+02
 0.16961834911E+02 0.15579346301E+02 0.14010837399E+02 0.12378444364E+02 0.10790681458E+02
 0.93324106436E+01 0.80573129098E+01 0.69876683397E+01 0.61210983035E+01 0.54388858837E+01
 0.49135157969E+01 0.45160367436E+01 0.42208899307E+01 0.40053249763E+01 0.38465617363E+01
 0.37221910398E+01 0.36131661544E+01 0.35049722817E+01 0.33870491876E+01 0.32534378511E+01
 0.31034952716E+01 0.29397972146E+01 0.27654661097E+01 0.25849769375E+01 0.24066558155E+01
 0.22423284588E+01 0.21047855446E+01 0.20065233234E+01 0.19588720753E+01 0.19691728082E+01
 0.20387943089E+01 0.21656035793E+01 0.25015892007E+01 0.27875494200E+01 0.31332297954E+01
 0.35361259958E+01 0.39940594043E+01 0.45060988371E+01 0.50695528062E+01 0.56793997367E+01
 0.63336591843E+01 0.70389368319E+01 0.78113771929E+01 0.86758500733E+01 0.96647584387E+01
 0.10811268333E+02 0.12135320935E+02 0.13630014481E+02 0.15254606701E+02 0.16932013279E+02
 0.18549336375E+02 0.19966885077E+02 0.21038850481E+02 0.21639437959E+02 0.21686428548E+02
 0.21158553303E+02 0.20102318661E+02 0.18622308968E+02 0.16857445288E+02 0.14955641617E+02
 0.13055204585E+02 0.11270496017E+02 0.96798694526E+01 0.83214785330E+01 0.72000496953E+01
 0.62982034070E+01 0.55858305423E+01 0.50282946124E+01 0.45940877139E+01 0.42575391518E+01
 0.39956552691E+01 0.37857195551E+01 0.36075003292E+01 0.34455070873E+01 0.32880186801E+01
 0.31267016402E+01 0.29587549688E+01 0.27867769063E+01 0.26145822345E+01 0.24451331615E+01
 0.22838792254E+01 0.21415614010E+01 0.20315955186E+01 0.19658904823E+01 0.19535293656E+01
 0.20004133558E+01 0.21081969916E+01 0.22754883616E+01 0.26484779352E+01 0.29825498936E+01
 0.33876371798E+01 0.38634186956E+01 0.44069534145E+01 0.50149968221E+01 0.56826058847E+01
 0.64011199413E+01 0.71623914758E+01 0.79666909123E+01 0.88262042182E+01 0.97639219207E+01
 0.10812609430E+02 0.12011209141E+02 0.13392756556E+02 0.14967661846E+02 0.16711983540E+02
 0.18562184865E+02 0.20412434024E+02 0.22118057963E+02 0.23512937387E+02 0.24438552853E+02
 0.24773600251E+02 0.24457254636E+02 0.23503696810E+02 0.22001990893E+02 0.20097001651E+02
 0.17959337156E+02 0.15757895484E+02 0.13639303584E+02 0.11711806447E+02 0.10036752557E+02
 0.86329382176E+01 0.74892134045E+01 0.65756164656E+01 0.58518262847E+01 0.52770220051E+01
 0.48179693416E+01 0.44489180654E+01 0.41467094966E+01 0.38898954917E+01 0.36616084737E+01
 0.34495811841E+01 0.32440003599E+01 0.30388279855E+01 0.28345944800E+01 0.26363481141E+01
 0.24491501429E+01 0.22785433461E+01 0.21343498212E+01 0.20298246627E+01 0.19763865490E+01
 0.19812695729E+01 0.20491787960E+01 0.21828816429E+01 0.23826676106E+01 0.27858802951E+01
 0.31629787059E+01 0.36237776659E+01 0.41714828903E+01 0.48046988294E+01 0.55186583031E+01
 0.63060525726E+01 0.71552477738E+01 0.80521538740E+01 0.89883065913E+01 0.99677012096E+01
 0.11007387161E+02 0.12136159307E+02 0.13393132065E+02 0.14819583043E+02 0.16442174457E+02
 0.18256807940E+02 0.20219750502E+02 0.22242421469E+02 0.24189012910E+02 0.25886159253E+02
 0.27149652388E+02 0.27819054489E+02 0.27788555108E+02 0.27029857034E+02 0.25602606360E+02
 0.23643960518E+02 0.21337944366E+02 0.18879425437E+02 0.16445892438E+02 0.14177895456E+02
 0.12166884864E+02 0.10454522993E+02 0.90430693229E+01 0.79076164185E+01 0.70051604898E+01
 0.62852011321E+01 0.57026200130E+01 0.52239210902E+01 0.48233269441E+01 0.44780520926E+01
 0.41695575790E+01 0.38852856640E+01 0.36160864661E+01 0.33546589225E+01 0.30986482837E+01
 0.28522256949E+01 0.26223444474E+01 0.24161126809E+01 0.22433192300E+01 0.21175112741E+01
 0.20511472979E+01 0.20514115977E+01 0.21221550768E+01 0.22668693266E+01 0.24878752449E+01
 0.29127472869E+01 0.33226119144E+01 0.38302222926E+01 0.44426866350E+01 0.51628791646E+01
 0.59867925333E+01 0.69050847849E+01 0.79034679200E+01 0.89631143103E+01 0.10066476099E+02
 0.11205871880E+02 0.12387410328E+02 0.13630551705E+02 0.14967779411E+02 0.16440946371E+02
 0.18088080300E+02 0.19925111752E+02 0.21932416353E+02 0.24046809977E+02 0.26154824934E+02
 0.28093015955E+02 0.29666083062E+02 0.30681451634E+02 0.30987688200E+02 0.30507283743E+02
 0.29258146155E+02 0.27354084822E+02 0.24978483221E+02 0.22342812452E+02 0.19650147416E+02
 0.17071662034E+02 0.14731998750E+02 0.12702735279E+02 0.11006955032E+02 0.96307329650E+01
 0.85338119042E+01 0.76601666767E+01 0.69524183786E+01 0.63643348270E+01 0.58624845154E+01
 0.54206676337E+01 0.50179484465E+01 0.46408567619E+01 0.42823409431E+01 0.39378484765E+01
 0.36051964528E+01 0.32871962701E+01 0.29906395342E+01 0.27232247807E+01 0.24945892668E+01
 0.23187373060E+01 0.22106834601E+01 0.21802651254E+01 0.22318971408E+01 0.23690729973E+01
 0.25954309571E+01 0.30306752693E+01 0.34563784432E+01 0.39962182571E+01 0.46604695112E+01
 0.54576460113E+01 0.63873185050E+01 0.74396659509E+01 0.85981487481E+01 0.98405780258E+01
 0.11141987382E+02 0.12482084561E+02 0.13852010103E+02 0.15256275018E+02 0.16713272041E+02
 0.18255462191E+02 0.19922745261E+02 0.21746621721E+02 0.23733068199E+02 0.25850176919E+02
 0.28017768838E+02 0.30099565543E+02 0.31909037079E+02 0.33236788516E+02 0.33892513265E+02
 0.33747989682E+02 0.32770480317E+02 0.31035521129E+02 0.28709504053E+02 0.26007902274E+02
 0.23151272536E+02 0.20335779716E+02 0.17716534152E+02 0.15397102479E+02 0.13426892628E+02
 0.11808596458E+02 0.10510067109E+02 0.94758646062E+01 0.86408289015E+01 0.79451973714E+01
 0.73429733522E+01 0.68001979173E+01 0.62914269452E+01 0.58007982720E+01 0.53228513641E+01
 0.48584383726E+01 0.44104873865E+01 0.39840519757E+01 0.35868241538E+01 0.32272211377E+01
 0.29142621853E+01 0.26605668912E+01 0.24820304297E+01 0.23920274934E+01 0.23978650005E+01
 0.25037347899E+01 0.27137306632E+01 0.31467800349E+01 0.35645296470E+01 0.41160760613E+01
 0.48137326485E+01 0.56707217233E+01 0.66918494677E+01 0.78695497387E+01 0.91867144223E+01
 0.10619470528E+02 0.12138282733E+02 0.13712117689E+02 0.15315580492E+02 0.16933755276E+02
 0.18564321144E+02 0.20220293956E+02 0.21930501325E+02 0.23731111614E+02 0.25649365505E+02
 0.27686865811E+02 0.29804556696E+02 0.31908171502E+02 0.33841436748E+02 0.35399570236E+02
 0.36368734010E+02 0.36577026639E+02 0.35936957898E+02 0.34472804378E+02 0.32319020928E+02
 0.29681419347E+02 0.26788251635E+02 0.23852772808E+02 0.21052768447E+02 0.18518782989E+02
 0.16326796432E+02 0.14499586860E+02 0.13017134156E+02 0.11829840028E+02 0.10871556266E+02
 0.10073541633E+02 0.93762353882E+01 0.87335044834E+01 0.81115971301E+01 0.74896813194E+01
 0.68617087472E+01 0.62338194973E+01 0.56178189957E+01 0.50269747757E+01 0.44751281369E+01
 0.39751777275E+01 0.35375860624E+01 0.31725396329E+01 0.28930517762E+01 0.27131983851E+01
 0.26434390345E+01 0.26897423866E+01 0.28563141070E+01 0.32756590584E+01 0.36563988834E+01
 0.41931480383E+01 0.48998611597E+01 0.57922365180E+01 0.68797978915E+01 0.81598024130E+01
 0.96179049479E+01 0.11231380386E+02 0.12969718900E+02 0.14795107533E+02 0.16666999387E+02
 0.18548656618E+02 0.20412142492E+02 0.22243251260E+02 0.24047227640E+02 0.25849531936E+02
 0.27686332449E+02 0.29587478098E+02 0.31557177986E+02 0.33546851889E+02 0.35436355368E+02
 0.37059404618E+02 0.38222000518E+02 0.38737911305E+02 0.38474545636E+02 0.37391674471E+02
 0.35557580289E+02 0.33136091253E+02 0.30353149873E+02 0.27447315867E+02 0.24612386284E+02
 0.21994457017E+02 0.19687748686E+02 0.17732831183E+02 0.16123613730E+02 0.14820281327E+02
 0.13762030158E+02 0.12878294431E+02 0.12099625669E+02 0.11366161349E+02 0.10631847657E+02
 0.98671313863E+01 0.90620140118E+01 0.82258006482E+01 0.73807934639E+01 0.65540830743E+01
 0.57723841720E+01 0.50590494338E+01 0.44314331974E+01 0.39010334769E+01 0.34775025186E+01
 0.31715868397E+01 0.29932495133E+01 0.29487883424E+01 0.30416973804E+01 0.34384123459E+01
 0.37505143241E+01 0.42408659606E+01 0.49255451302E+01 0.58212926581E+01 0.69405130230E+01
 0.82862337033E+01 0.98504724189E+01 0.11615580147E+02 0.13554195833E+02 0.15626994805E+02
 0.17782852489E+02 0.19964125571E+02 0.22114522079E+02 0.24187478407E+02 0.26155661723E+02
 0.28019121881E+02 0.29805296118E+02 0.31557522891E+02 0.33300073868E+02 0.34999197258E+02
 0.36603179549E+02 0.38030032745E+02 0.39153845052E+02 0.39818591429E+02 0.39877776175E+02
 0.39240809555E+02 0.37904145102E+02 0.35955231429E+02 0.33552673663E+02 0.30897811808E+02
 0.28211498033E+02 0.25687214547E+02 0.23428480001E+02 0.21483186448E+02 0.19855983975E+02
 0.18518334181E+02 0.17418855384E+02 0.16491347999E+02 0.15662508509E+02 0.14861155338E+02
 0.14027163382E+02 0.13118541418E+02 0.12117252976E+02 0.11032257480E+02 0.98956942755E+01
 0.87523061666E+01 0.76482579678E+01 0.66241458868E+01 0.57114097463E+01 0.49307911036E+01
 0.42940406621E+01 0.38081667291E+01 0.34780653322E+01 0.33060996606E+01 0.32924121392E+01
 0.36603358613E+01 0.38711425878E+01 0.42804854666E+01 0.49062279102E+01 0.57663217314E+01
 0.68748893325E+01 0.82400659588E+01 0.98621070889E+01 0.11731866281E+02 0.13828994663E+02
 0.16118182632E+02 0.18545069048E+02 0.21036897273E+02 0.23510365389E+02 0.25884161066E+02
 0.28092999691E+02 0.30100906321E+02 0.31909255323E+02 0.33547317036E+02 0.34999517309E+02
 0.36248433198E+02 0.37315451231E+02 0.38228087623E+02 0.38978200196E+02 0.39500118089E+02
 0.39686237155E+02 0.39430502292E+02 0.38672293262E+02 0.37418165379E+02 0.35737398179E+02
 0.33743499767E+02 0.31578246660E+02 0.29405512199E+02 0.27400541383E+02 0.25655029883E+02
 0.24175703060E+02 0.22941540041E+02 0.21910562323E+02 0.21023694103E+02 0.20208718064E+02
 0.19387463981E+02 0.18486647372E+02 0.17449517451E+02 0.16246137032E+02 0.14880840353E+02
 0.13392832415E+02 0.11846248720E+02 0.10313441534E+02 0.88608305317E+01 0.75420150459E+01
 0.63953169888E+01 0.54430424364E+01 0.46936269533E+01 0.41465262461E+01 0.37964768938E+01
 0.36361810369E+01 0.39708713251E+01 0.40448860300E+01 0.43375135997E+01 0.48648807302E+01
 0.56461359844E+01 0.66974386895E+01 0.80310562015E+01 0.96549041794E+01 0.11569490803E+02
 0.13763943602E+02 0.16211448448E+02 0.18862563132E+02 0.21639722718E+02 0.24440399746E+02
 0.27151160721E+02 0.29667017547E+02 0.31909718761E+02 0.33841403896E+02 0.35435570326E+02
 0.36602811795E+02 0.37315936692E+02 0.37644381966E+02 0.37725639916E+02 0.37705173515E+02
 0.37673029572E+02 0.37634621494E+02 0.37530036854E+02 0.37280354725E+02 0.36826058985E+02
 0.36139556618E+02 0.35218991375E+02 0.34082650718E+02 0.32777447767E+02 0.31397261796E+02
 0.30090054842E+02 0.28971830864E+02 0.28034128932E+02 0.27240450227E+02 0.26537515992E+02
 0.25854880083E+02 0.25108824105E+02 0.24212655786E+02 0.23092019924E+02 0.21701032981E+02
 0.20035527526E+02 0.18139205343E+02 0.16097002911E+02 0.14014999277E+02 0.11996690454E+02
 0.10127798434E+02 0.84716331723E+01 0.70686338265E+01 0.59369253917E+01 0.50759816247E+01
 0.44732566822E+01 0.41106685734E+01 0.44075533789E+01 0.43009885077E+01 0.44395187329E+01
 0.48300330167E+01 0.54897963133E+01 0.64370896140E+01 0.76877593556E+01 0.92552999557E+01
 0.11148402665E+02 0.13366102256E+02 0.15892749231E+02 0.18690404511E+02 0.21688227082E+02
 0.24777732012E+02 0.27823090389E+02 0.30683548476E+02 0.33237211388E+02 0.35398867966E+02
 0.37057648425E+02 0.38028379283E+02 0.38228217728E+02 0.37726933183E+02 0.36739900760E+02
 0.35569844402E+02 0.34511503621E+02 0.33765198435E+02 0.33404630687E+02 0.33402283069E+02
 0.33674967791E+02 0.34112771262E+02 0.34586840295E+02 0.34957007905E+02 0.35099265388E+02
 0.34952456692E+02 0.34560133383E+02 0.34075204230E+02 0.33663329109E+02 0.33326752798E+02
 0.33016228638E+02 0.32659396901E+02 0.32161080624E+02 0.31412895382E+02 0.30312629783E+02
 0.28788908288E+02 0.26823577859E+02 0.24464695927E+02 0.21823262198E+02 0.19050150054E+02
 0.16301231158E+02 0.13708710770E+02 0.11370199661E+02 0.93502828983E+01 0.76836031206E+01
 0.63771736937E+01 0.54157050350E+01 0.47702013875E+01 0.50223342452E+01 0.46756977037E+01
 0.46167984597E+01 0.48333886791E+01 0.53333293207E+01 0.61339782529E+01 0.72536094945E+01
 0.87089735167E+01 0.10513994654E+02 0.12676161042E+02 0.15191797236E+02 0.18038409188E+02
 0.21161018122E+02 0.24459377598E+02 0.27790128041E+02 0.30987520520E+02 0.33891251232E+02
 0.36367917776E+02 0.38221357354E+02 0.39152584048E+02 0.38977548351E+02 0.37706463456E+02
 0.35571578778E+02 0.32994550893E+02 0.30483740846E+02 0.28496548454E+02 0.27335490947E+02
 0.27121441682E+02 0.27824452063E+02 0.29300920222E+02 0.31312555924E+02 0.33545653607E+02
 0.35660113324E+02 0.37372568245E+02 0.38544006839E+02 0.39225752864E+02 0.39631822651E+02
 0.39997237247E+02 0.40338198405E+02 0.40579300897E+02 0.40602482274E+02 0.40257340293E+02
 0.39387980515E+02 0.37872167651E+02 0.35660704798E+02 0.32802500398E+02 0.29444445331E+02
 0.25802043582E+02 0.22109180246E+02 0.18569671213E+02 0.15332767183E+02 0.12494467884E+02
 0.10108164314E+02 0.81916103456E+01 0.67315588949E+01 0.56914438334E+01 0.58862889780E+01
 0.52176801295E+01 0.49052695324E+01 0.49082880624E+01 0.52144258201E+01 0.58324466667E+01
 0.67793772529E+01 0.80727695813E+01 0.97287528458E+01 0.11760653836E+02 0.14175760585E+02
 0.16968197465E+02 0.20104001304E+02 0.23502215182E+02 0.27027330851E+02 0.30503712591E+02
 0.33744174056E+02 0.36575562877E+02 0.38739258892E+02 0.39819948792E+02 0.39499923988E+02
 0.37672984263E+02 0.34512728557E+02 0.30484752869E+02 0.26268015553E+02 0.22591316100E+02
 0.20056578326E+02 0.19034194094E+02 0.19650331550E+02 0.21815008952E+02 0.25241687171E+02
 0.29467131248E+02 0.33915143204E+02 0.38021690266E+02 0.41384973079E+02 0.43872638067E+02
 0.45631632441E+02 0.46993299638E+02 0.48258167787E+02 0.49420325598E+02 0.50333816075E+02
 0.50780154651E+02 0.50507264848E+02 0.49292315701E+02 0.47011164875E+02 0.43688942244E+02
 0.39510545592E+02 0.34783397311E+02 0.29863157529E+02 0.25072394041E+02 0.20648260912E+02
 0.16734945138E+02 0.13404889199E+02 0.10681554326E+02 0.85519881948E+01 0.69742723235E+01
 0.70882025948E+01 0.59904467303E+01 0.53494202212E+01 0.50899273386E+01 0.51684734464E+01
 0.55740082675E+01 0.63150285582E+01 0.74061988041E+01 0.88631562978E+01 0.10702243132E+02
 0.12939075513E+02 0.15582519948E+02 0.18620397428E+02 0.21997537805E+02 0.25599193822E+02
 0.29255701894E+02 0.32767751111E+02 0.35935649415E+02 0.38476679124E+02 0.39881244178E+02
 0.39687407233E+02 0.37633602398E+02 0.33764540414E+02 0.28496616426E+02 0.22590977041E+02
 0.17001423361E+02 0.12646039106E+02 0.10215547580E+02 0.10092000907E+02 0.12347944432E+02
 0.16753003127E+02 0.22774701920E+02 0.29632913281E+02 0.36456353835E+02 0.42508212263E+02
 0.47382600122E+02 0.51079304703E+02 0.53927149675E+02 0.56396740209E+02 0.58794561733E+02
 0.61009222012E+02 0.62740905360E+02 0.63595726125E+02 0.63180340568E+02 0.61216702516E+02
 0.57639627357E+02 0.52639732221E+02 0.46630236852E+02 0.40143718337E+02 0.33697672107E+02
 0.27687532679E+02 0.22349226011E+02 0.17785945147E+02 0.14017831873E+02 0.11018902152E+02
 0.87343567683E+01 0.87248693798E+01 0.70688431022E+01 0.60028547362E+01 0.54166409080E+01
 0.52278683056E+01 0.53937970161E+01 0.59040799930E+01 0.67644871834E+01 0.79870082301E+01
 0.95883399847E+01 0.11588971738E+02 0.14008014703E+02 0.16851396291E+02 0.20091130341E+02
 0.23642532638E+02 0.27356844176E+02 0.31038299925E+02 0.34473904115E+02 0.37393246754E+02
 0.39243456559E+02 0.39431577886E+02 0.37528539927E+02 0.33402996861E+02 0.27335069300E+02
 0.20055826275E+02 0.12644584066E+02 0.62874706581E+01 0.20102461683E+01 0.51370426048E+00
 0.21280719674E+01 0.67996813911E+01 0.14057168941E+02 0.23019910401E+02 0.32547333251E+02
 0.41530530404E+02 0.49203732185E+02 0.55324352942E+02 0.60146853195E+02 0.64221018602E+02
 0.68107285022E+02 0.71980722736E+02 0.75503016147E+02 0.78116859173E+02 0.79192030140E+02
 0.78195483387E+02 0.74858164911E+02 0.69283477146E+02 0.61951410130E+02 0.53602733000E+02
 0.45039481329E+02 0.36927086010E+02 0.29685312975E+02 0.23495283221E+02 0.18377264795E+02
 0.14271809088E+02 0.11088594348E+02 0.10885948705E+02 0.85289816207E+01 0.69245012336E+01
 0.59302611764E+01 0.54234746992E+01 0.53206385548E+01 0.55811595815E+01 0.61936760778E+01
 0.71619164621E+01 0.84996202102E+01 0.10228481919E+02 0.12372775485E+02 0.14950143532E+02
 0.17955785214E+02 0.21338930730E+02 0.24984325890E+02 0.28715945760E+02 0.32321873071E+02
 0.35557565144E+02 0.37903870098E+02 0.38671505756E+02 0.37278098540E+02 0.33400549961E+02
 0.27122171148E+02 0.19035329691E+02 0.10214411326E+02 0.20082693142E+01 -.42698979313E+01
 -.75915122718E+01 -.73168210877E+01 -.32279388285E+01 0.44060761348E+01 0.14765104091E+02
 0.26561908599E+02 0.38351113799E+02 0.48954422924E+02 0.57787225607E+02 0.64933191126E+02
 0.70961112759E+02 0.76590249747E+02 0.82323641891E+02 0.88011254778E+02 0.92966299929E+02
 0.96295756965E+02 0.97125531452E+02 0.94847758886E+02 0.89324883350E+02 0.80978660704E+02
 0.70710737920E+02 0.59660411246E+02 0.48892455020E+02 0.39157800718E+02 0.30823053098E+02
 0.23951999851E+02 0.18443554772E+02 0.14141079433E+02 0.13639829082E+02 0.10433976273E+02
 0.81697518349E+01 0.66734443100E+01 0.57855618705E+01 0.53784692691E+01 0.53716817520E+01
 0.57275233544E+01 0.64353141755E+01 0.75009210815E+01 0.89428109912E+01 0.10786391446E+02
 0.13055381036E+02 0.15760853719E+02 0.18882870256E+02 0.22346779252E+02 0.26011426956E+02
 0.29681758192E+02 0.33133206387E+02 0.35952321666E+02 0.37416519330E+02 0.36824178329E+02
 0.33673370711E+02 0.27825789162E+02 0.19653841904E+02 0.10093492355E+02 0.51210689767E+00
 -.75929999275E+01 -.12908513686E+02 -.14481695425E+02 -.11779564743E+02 -.47663412570E+01
 0.59669932769E+01 0.19176010779E+02 0.33210160723E+02 0.46500858280E+02 0.58047749739E+02
 0.67650394112E+02 0.75800398321E+02 0.83327030672E+02 0.90964343531E+02 0.98924930668E+02
 0.10656516381E+03 0.11277387409E+03 0.11631110421E+03 0.11612680803E+03 0.11167046288E+03
 0.10310381650E+03 0.91326490027E+02 0.77761132363E+02 0.63951259395E+02 0.51146906787E+02