   9   9   0   0
  0.1255842E+02  0.4913800E-09  0.4913800E-09  0.5405200E-09  0.5000000E-15
  1.000000000000000E-004
  CAR 
 unknown system                          
     14.44010143    -20.37088139  301      1.12490050      1.00000000
    -20.371  0.0000E+00  0.0000E+00
    -20.255  0.0000E+00  0.0000E+00
    -20.139  0.0000E+00  0.0000E+00
    -20.023  0.0000E+00  0.0000E+00
    -19.907  0.0000E+00  0.0000E+00
    -19.791  0.0000E+00  0.0000E+00
    -19.675  0.0000E+00  0.0000E+00
    -19.559  0.0000E+00  0.0000E+00
    -19.443  0.0000E+00  0.0000E+00
    -19.327  0.0000E+00  0.0000E+00
    -19.211  0.0000E+00  0.0000E+00
    -19.094  0.0000E+00  0.0000E+00
    -18.978  0.0000E+00  0.0000E+00
    -18.862  0.0000E+00  0.0000E+00
    -18.746  0.0000E+00  0.0000E+00
    -18.630  0.0000E+00  0.0000E+00
    -18.514  0.0000E+00  0.0000E+00
    -18.398  0.0000E+00  0.0000E+00
    -18.282  0.9666E+00  0.3046E-01
    -18.166  0.1680E+01  0.1832E+00
    -18.050  0.2930E+01  0.4369E+00
    -17.934  0.4814E+01  0.9004E+00
    -17.818  0.9372E+01  0.1744E+01
    -17.702  0.6166E+00  0.2000E+01
    -17.586  0.1576E+01  0.2139E+01
    -17.470  0.3404E+01  0.2403E+01
    -17.354  0.6807E+01  0.3346E+01
    -17.238  0.1917E+01  0.3753E+01
    -17.122  0.8461E+00  0.3903E+01
    -17.006  0.6280E+00  0.3977E+01
    -16.890  0.3898E+01  0.4122E+01
    -16.774  0.6862E+01  0.5065E+01
    -16.658  0.2541E+01  0.5520E+01
    -16.542  0.1469E+01  0.5749E+01
    -16.426  0.9700E+00  0.5892E+01
    -16.310  0.5159E+00  0.5979E+01
    -16.194  0.4122E+02  0.9377E+01
    -16.078  0.0000E+00  0.1200E+02
    -15.961  0.0000E+00  0.1200E+02
    -15.845  0.0000E+00  0.1200E+02
    -15.729  0.0000E+00  0.1200E+02
    -15.613  0.0000E+00  0.1200E+02
    -15.497  0.0000E+00  0.1200E+02
    -15.381  0.0000E+00  0.1200E+02
    -15.265  0.0000E+00  0.1200E+02
    -15.149  0.0000E+00  0.1200E+02
    -15.033  0.0000E+00  0.1200E+02
    -14.917  0.0000E+00  0.1200E+02
    -14.801  0.0000E+00  0.1200E+02
    -14.685  0.0000E+00  0.1200E+02
    -14.569  0.0000E+00  0.1200E+02
    -14.453  0.0000E+00  0.1200E+02
    -14.337  0.0000E+00  0.1200E+02
    -14.221  0.0000E+00  0.1200E+02
    -14.105  0.0000E+00  0.1200E+02
    -13.989  0.0000E+00  0.1200E+02
    -13.873  0.0000E+00  0.1200E+02
    -13.757  0.0000E+00  0.1200E+02
    -13.641  0.0000E+00  0.1200E+02
    -13.525  0.0000E+00  0.1200E+02
    -13.409  0.0000E+00  0.1200E+02
    -13.293  0.0000E+00  0.1200E+02
    -13.177  0.0000E+00  0.1200E+02
    -13.061  0.0000E+00  0.1200E+02
    -12.945  0.0000E+00  0.1200E+02
    -12.829  0.0000E+00  0.1200E+02
    -12.712  0.0000E+00  0.1200E+02
    -12.596  0.0000E+00  0.1200E+02
    -12.480  0.0000E+00  0.1200E+02
    -12.364  0.0000E+00  0.1200E+02
    -12.248  0.0000E+00  0.1200E+02
    -12.132  0.0000E+00  0.1200E+02
    -12.016  0.0000E+00  0.1200E+02
    -11.900  0.0000E+00  0.1200E+02
    -11.784  0.0000E+00  0.1200E+02
    -11.668  0.0000E+00  0.1200E+02
    -11.552  0.0000E+00  0.1200E+02
    -11.436  0.0000E+00  0.1200E+02
    -11.320  0.0000E+00  0.1200E+02
    -11.204  0.0000E+00  0.1200E+02
    -11.088  0.0000E+00  0.1200E+02
    -10.972  0.0000E+00  0.1200E+02
    -10.856  0.0000E+00  0.1200E+02
    -10.740  0.0000E+00  0.1200E+02
    -10.624  0.0000E+00  0.1200E+02
    -10.508  0.0000E+00  0.1200E+02
    -10.392  0.0000E+00  0.1200E+02
    -10.276  0.0000E+00  0.1200E+02
    -10.160  0.0000E+00  0.1200E+02
    -10.044  0.0000E+00  0.1200E+02
     -9.928  0.0000E+00  0.1200E+02
     -9.812  0.0000E+00  0.1200E+02
     -9.696  0.0000E+00  0.1200E+02
     -9.579  0.0000E+00  0.1200E+02
     -9.463  0.0000E+00  0.1200E+02
     -9.347  0.0000E+00  0.1200E+02
     -9.231  0.0000E+00  0.1200E+02
     -9.115  0.0000E+00  0.1200E+02
     -8.999  0.0000E+00  0.1200E+02
     -8.883  0.0000E+00  0.1200E+02
     -8.767  0.0000E+00  0.1200E+02
     -8.651  0.0000E+00  0.1200E+02
     -8.535  0.0000E+00  0.1200E+02
     -8.419  0.0000E+00  0.1200E+02
     -8.303  0.0000E+00  0.1200E+02
     -8.187  0.7603E-01  0.1200E+02
     -8.071  0.3798E+00  0.1203E+02
     -7.955  0.5019E+00  0.1208E+02
     -7.839  0.7186E+00  0.1215E+02
     -7.723  0.9101E+00  0.1224E+02
     -7.607  0.1289E+01  0.1237E+02
     -7.491  0.1799E+01  0.1255E+02
     -7.375  0.3705E+01  0.1284E+02
     -7.259  0.3928E+01  0.1363E+02
     -7.143  0.8137E+00  0.1391E+02
     -7.027  0.4256E+00  0.1398E+02
     -6.911  0.2329E+00  0.1401E+02
     -6.795  0.2834E+00  0.1404E+02
     -6.679  0.4335E+00  0.1408E+02
     -6.563  0.6876E+00  0.1415E+02
     -6.446  0.1167E+01  0.1425E+02
     -6.330  0.1924E+01  0.1443E+02
     -6.214  0.5873E+01  0.1487E+02
     -6.098  0.2843E+01  0.1541E+02
     -5.982  0.1574E+01  0.1566E+02
     -5.866  0.9843E+00  0.1581E+02
     -5.750  0.6650E+00  0.1590E+02
     -5.634  0.5083E+00  0.1596E+02
     -5.518  0.7298E-01  0.1600E+02
     -5.402  0.1701E+01  0.1609E+02
     -5.286  0.3613E+01  0.1639E+02
     -5.170  0.2881E+01  0.1677E+02
     -5.054  0.2891E+01  0.1711E+02
     -4.938  0.2220E+01  0.1741E+02
     -4.822  0.1537E+01  0.1762E+02
     -4.706  0.1123E+01  0.1778E+02
     -4.590  0.7802E+00  0.1789E+02
     -4.474  0.1174E+01  0.1798E+02
     -4.358  0.2064E+02  0.1854E+02
     -4.242  0.8853E+01  0.2015E+02
     -4.126  0.5987E+01  0.2097E+02
     -4.010  0.4919E+01  0.2169E+02
     -3.894  0.3571E+01  0.2217E+02
     -3.778  0.7760E+01  0.2305E+02
     -3.662  0.4046E+01  0.2369E+02
     -3.546  0.7812E+00  0.2398E+02
     -3.430  0.0000E+00  0.2400E+02
     -3.313  0.0000E+00  0.2400E+02
     -3.197  0.0000E+00  0.2400E+02
     -3.081  0.0000E+00  0.2400E+02
     -2.965  0.0000E+00  0.2400E+02
     -2.849  0.0000E+00  0.2400E+02
     -2.733  0.0000E+00  0.2400E+02
     -2.617  0.0000E+00  0.2400E+02
     -2.501  0.0000E+00  0.2400E+02
     -2.385  0.0000E+00  0.2400E+02
     -2.269  0.0000E+00  0.2400E+02
     -2.153  0.4307E+01  0.2406E+02
     -2.037  0.1216E+02  0.2534E+02
     -1.921  0.5776E+01  0.2621E+02
     -1.805  0.9222E+01  0.2692E+02
     -1.689  0.6226E+01  0.2778E+02
     -1.573  0.7596E+01  0.2847E+02
     -1.457  0.6453E+01  0.2951E+02
     -1.341  0.9993E+00  0.3000E+02
     -1.225  0.8828E+01  0.3029E+02
     -1.109  0.6332E+01  0.3164E+02
     -0.993  0.5946E+01  0.3205E+02
     -0.877  0.7323E+01  0.3375E+02
     -0.761  0.2449E+01  0.3400E+02
     -0.645  0.5898E+01  0.3456E+02
     -0.529  0.1033E+02  0.3541E+02
     -0.413  0.1008E+02  0.3669E+02
     -0.297  0.4769E+01  0.3761E+02
     -0.181  0.1059E+02  0.3822E+02
     -0.064  0.1066E+02  0.3952E+02
      0.052  0.6130E+01  0.4025E+02
      0.168  0.1260E+02  0.4174E+02
      0.284  0.2942E+01  0.4205E+02
      0.400  0.1230E+02  0.4319E+02
      0.516  0.4578E+01  0.4385E+02
      0.632  0.4717E+01  0.4439E+02
      0.748  0.9621E+01  0.4521E+02
      0.864  0.5073E+01  0.4621E+02
      0.980  0.1181E+02  0.4706E+02
      1.096  0.8929E-01  0.4800E+02
      1.212  0.0000E+00  0.4800E+02
      1.328  0.0000E+00  0.4800E+02
      1.444  0.0000E+00  0.4800E+02
      1.560  0.0000E+00  0.4800E+02
      1.676  0.0000E+00  0.4800E+02
      1.792  0.0000E+00  0.4800E+02
      1.908  0.0000E+00  0.4800E+02
      2.024  0.0000E+00  0.4800E+02
      2.140  0.0000E+00  0.4800E+02
      2.256  0.0000E+00  0.4800E+02
      2.372  0.0000E+00  0.4800E+02
      2.488  0.0000E+00  0.4800E+02
      2.604  0.0000E+00  0.4800E+02
      2.720  0.0000E+00  0.4800E+02
      2.836  0.0000E+00  0.4800E+02
      2.952  0.0000E+00  0.4800E+02
      3.069  0.0000E+00  0.4800E+02
      3.185  0.0000E+00  0.4800E+02
      3.301  0.0000E+00  0.4800E+02
      3.417  0.0000E+00  0.4800E+02
      3.533  0.0000E+00  0.4800E+02
      3.649  0.0000E+00  0.4800E+02
      3.765  0.0000E+00  0.4800E+02
      3.881  0.0000E+00  0.4800E+02
      3.997  0.0000E+00  0.4800E+02
      4.113  0.0000E+00  0.4800E+02
      4.229  0.0000E+00  0.4800E+02
      4.345  0.0000E+00  0.4800E+02
      4.461  0.0000E+00  0.4800E+02
      4.577  0.0000E+00  0.4800E+02
      4.693  0.0000E+00  0.4800E+02
      4.809  0.0000E+00  0.4800E+02
      4.925  0.0000E+00  0.4800E+02
      5.041  0.0000E+00  0.4800E+02
      5.157  0.0000E+00  0.4800E+02
      5.273  0.0000E+00  0.4800E+02
      5.389  0.0000E+00  0.4800E+02
      5.505  0.0000E+00  0.4800E+02
      5.621  0.0000E+00  0.4800E+02
      5.737  0.0000E+00  0.4800E+02
      5.853  0.0000E+00  0.4800E+02
      5.969  0.0000E+00  0.4800E+02
      6.085  0.0000E+00  0.4800E+02
      6.202  0.0000E+00  0.4800E+02
      6.318  0.0000E+00  0.4800E+02
      6.434  0.0000E+00  0.4800E+02
      6.550  0.0000E+00  0.4800E+02
      6.666  0.0000E+00  0.4800E+02
      6.782  0.0000E+00  0.4800E+02
      6.898  0.0000E+00  0.4800E+02
      7.014  0.0000E+00  0.4800E+02
      7.130  0.7112E-04  0.4800E+02
      7.246  0.1553E-01  0.4800E+02
      7.362  0.5797E-01  0.4800E+02
      7.478  0.1274E+00  0.4802E+02
      7.594  0.2113E+00  0.4804E+02
      7.710  0.2561E+00  0.4806E+02
      7.826  0.2827E+00  0.4809E+02
      7.942  0.3107E+00  0.4813E+02
      8.058  0.3574E+00  0.4817E+02
      8.174  0.4068E+00  0.4821E+02
      8.290  0.4588E+00  0.4826E+02
      8.406  0.5130E+00  0.4832E+02
      8.522  0.5916E+00  0.4838E+02
      8.638  0.7474E+00  0.4846E+02
      8.754  0.8760E+00  0.4855E+02
      8.870  0.8481E+00  0.4865E+02
      8.986  0.9104E+00  0.4875E+02
      9.102  0.9748E+00  0.4886E+02
      9.218  0.1041E+01  0.4898E+02
      9.334  0.1451E+01  0.4912E+02
      9.451  0.1514E+01  0.4929E+02
      9.567  0.1262E+01  0.4945E+02
      9.683  0.1300E+01  0.4959E+02
      9.799  0.1522E+01  0.4976E+02
      9.915  0.2112E+01  0.4995E+02
     10.031  0.1210E+01  0.5014E+02
     10.147  0.1315E+01  0.5027E+02
     10.263  0.3710E+01  0.5054E+02
     10.379  0.1219E+02  0.5144E+02
     10.495  0.4001E+01  0.5218E+02
     10.611  0.7077E+01  0.5276E+02
     10.727  0.7116E+01  0.5367E+02
     10.843  0.3501E+01  0.5434E+02
     10.959  0.3086E+01  0.5465E+02
     11.075  0.7822E+01  0.5520E+02
     11.191  0.3242E+01  0.5595E+02
     11.307  0.5945E+01  0.5652E+02
     11.423  0.7216E+01  0.5731E+02
     11.539  0.2856E+01  0.5797E+02
     11.655  0.2042E+01  0.5817E+02
     11.771  0.4798E+01  0.5934E+02
     11.887  0.1822E+01  0.5968E+02
     12.003  0.8397E+00  0.5982E+02
     12.119  0.5340E+00  0.5990E+02
     12.235  0.3942E+00  0.5995E+02
     12.351  0.2192E+00  0.5999E+02
     12.467  0.0000E+00  0.6000E+02
     12.584  0.0000E+00  0.6000E+02
     12.700  0.0000E+00  0.6000E+02
     12.816  0.0000E+00  0.6000E+02
     12.932  0.0000E+00  0.6000E+02
     13.048  0.0000E+00  0.6000E+02
     13.164  0.0000E+00  0.6000E+02
     13.280  0.0000E+00  0.6000E+02
     13.396  0.0000E+00  0.6000E+02
     13.512  0.0000E+00  0.6000E+02
     13.628  0.0000E+00  0.6000E+02
     13.744  0.0000E+00  0.6000E+02
     13.860  0.0000E+00  0.6000E+02
     13.976  0.0000E+00  0.6000E+02
     14.092  0.0000E+00  0.6000E+02
     14.208  0.0000E+00  0.6000E+02
     14.324  0.0000E+00  0.6000E+02
     14.440  0.0000E+00  0.6000E+02
