       N       E                     dE             d eps       ncg     rms          rms(c)
DAV:   1     0.283881028305E+03    0.28388E+03   -0.23866E+04  1620   0.132E+03
DAV:   2    -0.623298677167E+02   -0.34621E+03   -0.33827E+03  2120   0.320E+02
DAV:   3    -0.803977461783E+02   -0.18068E+02   -0.18013E+02  1944   0.820E+01
DAV:   4    -0.806163875160E+02   -0.21864E+00   -0.21832E+00  1952   0.986E+00
DAV:   5    -0.806204095158E+02   -0.40220E-02   -0.40212E-02  1890   0.132E+00    0.187E+01
RMM:   6    -0.710324394102E+02    0.95880E+01   -0.40024E+01  1723   0.326E+01    0.510E+00
RMM:   7    -0.710134217572E+02    0.19018E-01   -0.15317E+00  1903   0.561E+00    0.337E+00
RMM:   8    -0.710337299396E+02   -0.20308E-01   -0.24817E-01  1826   0.392E+00    0.622E-01
RMM:   9    -0.710265666540E+02    0.71633E-02   -0.52674E-02  1938   0.117E+00    0.129E-01
RMM:  10    -0.710297223189E+02   -0.31557E-02   -0.15247E-02  1898   0.630E-01    0.232E-01
RMM:  11    -0.710283863679E+02    0.13360E-02   -0.25686E-03  1933   0.284E-01    0.685E-02
RMM:  12    -0.710283256069E+02    0.60761E-04   -0.87857E-04  1925   0.152E-01    0.716E-03
RMM:  13    -0.710283280535E+02   -0.24467E-05   -0.23396E-05  1380   0.279E-02
   1 F= -.71028328E+02 E0= -.71028328E+02  d E =0.000000E+00
