Starting job 12684066 on c1-30 on saga at Wed Sep 18 13:29:42 CEST 2024

The following modules were not unloaded:
  (Use "module --force purge" to unload all):

  1) StdEnv
 running on    4 total cores
 distrk:  each k-point on    4 cores,    1 groups
 distr:  one band on    2 cores,    2 groups
 using from now: INCAR     
 vasp.5.4.4.18Apr17-6-g9f103f2a35 (build Jul 15 2019 14:02:39) complex          
  
 POSCAR found type information on POSCAR  Si O 
 POSCAR found :  2 types and       9 ions
 scaLAPACK will be used
 LDA part: xc-table for Pade appr. of Perdew
 POSCAR, INCAR and KPOINTS ok, starting setup
 FFT: planning ...
 WAVECAR not read
 entering main loop
       N       E                     dE             d eps       ncg     rms          rms(c)
DAV:   1     0.283881028305E+03    0.28388E+03   -0.23866E+04  1620   0.132E+03
DAV:   2    -0.623298677167E+02   -0.34621E+03   -0.33827E+03  2120   0.320E+02
DAV:   3    -0.803977461783E+02   -0.18068E+02   -0.18013E+02  1944   0.820E+01
DAV:   4    -0.806163875160E+02   -0.21864E+00   -0.21832E+00  1952   0.986E+00
DAV:   5    -0.806204095158E+02   -0.40220E-02   -0.40212E-02  1890   0.132E+00    0.187E+01
RMM:   6    -0.710324394102E+02    0.95880E+01   -0.40024E+01  1723   0.326E+01    0.510E+00
RMM:   7    -0.710134217572E+02    0.19018E-01   -0.15317E+00  1903   0.561E+00    0.337E+00
RMM:   8    -0.710337299396E+02   -0.20308E-01   -0.24817E-01  1826   0.392E+00    0.622E-01
RMM:   9    -0.710265666540E+02    0.71633E-02   -0.52674E-02  1938   0.117E+00    0.129E-01
RMM:  10    -0.710297223189E+02   -0.31557E-02   -0.15247E-02  1898   0.630E-01    0.232E-01
RMM:  11    -0.710283863679E+02    0.13360E-02   -0.25686E-03  1933   0.284E-01    0.685E-02
RMM:  12    -0.710283256069E+02    0.60761E-04   -0.87857E-04  1925   0.152E-01    0.716E-03
RMM:  13    -0.710283280535E+02   -0.24467E-05   -0.23396E-05  1380   0.279E-02
   1 F= -.71028328E+02 E0= -.71028328E+02  d E =0.000000E+00

Job 12684066 consumed 0.0 billing hours from project nn9988k.

Submitted 2024-09-18T13:29:39; waited 3.0 seconds in the queue after becoming eligible to run.

Requested wallclock time: 10.0 minutes
Elapsed wallclock time:   29.0 seconds

Task and CPU statistics:
ID              CPUs  Tasks  CPU util                Start  Elapsed  Exit status
12684066           4            0.0 %  2024-09-18T13:29:42   29.0 s  0
12684066.batch     4      1     2.3 %  2024-09-18T13:29:42   29.0 s  0
12684066.vasp      4      4    71.9 %  2024-09-18T13:29:45   26.0 s  0

Used CPU time:   1.3 CPU minutes
Unused CPU time: 38.5 CPU seconds

Memory statistics, in GiB:
ID               Alloc   Usage
12684066          14.8        
12684066.batch    14.8     0.0
12684066.vasp     14.8     0.3

Job 12684066 completed at Wed Sep 18 13:30:11 CEST 2024
