<?xml version="1.0" encoding="ISO-8859-1"?>
<modeling>
 <generator>
  <i name="program" type="string">vasp </i>
  <i name="version" type="string">5.4.4.18Apr17-6-g9f103f2a35  </i>
  <i name="subversion" type="string">(build Jul 15 2019 14:02:39) complex            parallel </i>
  <i name="platform" type="string">TEST </i>
  <i name="date" type="string">2024 09 18 </i>
  <i name="time" type="string">13:29:50 </i>
 </generator>
 <incar>
  <i type="string" name="PREC">normal    ! low/normal/accurate</i>
  <i type="string" name="ALGO"> Fast      ! Algorithm for electronic re</i>
  <i type="int" name="ISPIN">     1</i>
  <i type="int" name="NELMIN">     4</i>
  <i name="EDIFF">      0.00001000</i>
  <i type="int" name="NSW">     0</i>
  <i name="ENCUT">    450.00000000</i>
  <i type="string" name="LREAL"> Auto      ! Projection in reciprocal sp</i>
  <i type="int" name="ISMEAR">    -5</i>
  <i name="SIGMA">      0.20000000</i>
  <i type="logical" name="LWAVE"> F  </i>
  <v type="int" name="KPOINT_BSE">    -1     0     0     0</v>
 </incar>
 <structure name="primitive_cell" >
  <crystal>
   <varray name="basis" >
    <v>       4.91380000       0.00000000       0.00000000 </v>
    <v>      -2.45690000       4.25547563       0.00000000 </v>
    <v>       0.00000000       0.00000000       5.40520000 </v>
   </varray>
   <i name="volume">    113.02573808 </i>
   <varray name="rec_basis" >
    <v>       0.20350849       0.11749568       0.00000000 </v>
    <v>       0.00000000       0.23499136       0.00000000 </v>
    <v>       0.00000000       0.00000000       0.18500703 </v>
   </varray>
  </crystal>
  <varray name="positions" >
   <v>       0.46980000       0.00000000      -0.33333333 </v>
   <v>       0.14830000      -0.26620000      -0.45226667 </v>
   <v>       0.41450000       0.26620000      -0.21440000 </v>
   <v>      -0.26620000       0.14830000       0.45226667 </v>
   <v>      -0.41450000      -0.14830000      -0.11893333 </v>
   <v>       0.00000000       0.46980000       0.33333333 </v>
   <v>      -0.46980000      -0.46980000       0.00000000 </v>
   <v>       0.26620000       0.41450000       0.21440000 </v>
   <v>      -0.14830000      -0.41450000       0.11893333 </v>
  </varray>
 </structure>
 <varray name="primitive_index" >
  <v type="int" >        1 </v>
  <v type="int" >        6 </v>
  <v type="int" >        4 </v>
  <v type="int" >        9 </v>
  <v type="int" >        5 </v>
  <v type="int" >        3 </v>
  <v type="int" >        2 </v>
  <v type="int" >        7 </v>
  <v type="int" >        8 </v>
 </varray>
 <kpoints>
  <generation param="Gamma">
   <v type="int" name="divisions">       6        6        5 </v>
   <v name="usershift">      0.00000000       0.00000000       0.00000000 </v>
   <v name="genvec1">      0.16666667      -0.00000000       0.00000000 </v>
   <v name="genvec2">      0.00000000       0.16666667       0.00000000 </v>
   <v name="genvec3">      0.00000000       0.00000000       0.20000000 </v>
   <v name="shift">      0.00000000       0.00000000       0.00000000 </v>
  </generation>
  <varray name="kpointlist" >
   <v>       0.00000000       0.00000000       0.00000000 </v>
   <v>       0.16666667       0.00000000       0.00000000 </v>
   <v>       0.33333333       0.00000000       0.00000000 </v>
   <v>       0.50000000       0.00000000       0.00000000 </v>
   <v>       0.16666667       0.16666667       0.00000000 </v>
   <v>       0.33333333       0.16666667       0.00000000 </v>
   <v>       0.33333333       0.33333333       0.00000000 </v>
   <v>       0.00000000       0.00000000       0.20000000 </v>
   <v>       0.16666667       0.00000000       0.20000000 </v>
   <v>       0.33333333       0.00000000       0.20000000 </v>
   <v>       0.50000000       0.00000000       0.20000000 </v>
   <v>      -0.33333333       0.00000000       0.20000000 </v>
   <v>      -0.16666667       0.00000000       0.20000000 </v>
   <v>       0.16666667       0.16666667       0.20000000 </v>
   <v>       0.33333333       0.16666667       0.20000000 </v>
   <v>       0.50000000       0.16666667       0.20000000 </v>
   <v>       0.33333333       0.33333333       0.20000000 </v>
   <v>       0.00000000       0.00000000       0.40000000 </v>
   <v>       0.16666667       0.00000000       0.40000000 </v>
   <v>       0.33333333       0.00000000       0.40000000 </v>
   <v>       0.50000000       0.00000000       0.40000000 </v>
   <v>      -0.33333333       0.00000000       0.40000000 </v>
   <v>      -0.16666667       0.00000000       0.40000000 </v>
   <v>       0.16666667       0.16666667       0.40000000 </v>
   <v>       0.33333333       0.16666667       0.40000000 </v>
   <v>       0.50000000       0.16666667       0.40000000 </v>
   <v>       0.33333333       0.33333333       0.40000000 </v>
  </varray>
  <varray name="weights" >
   <v>       0.00555556 </v>
   <v>       0.03333333 </v>
   <v>       0.03333333 </v>
   <v>       0.01666667 </v>
   <v>       0.03333333 </v>
   <v>       0.06666667 </v>
   <v>       0.01111111 </v>
   <v>       0.01111111 </v>
   <v>       0.03333333 </v>
   <v>       0.03333333 </v>
   <v>       0.03333333 </v>
   <v>       0.03333333 </v>
   <v>       0.03333333 </v>
   <v>       0.06666667 </v>
   <v>       0.06666667 </v>
   <v>       0.06666667 </v>
   <v>       0.02222222 </v>
   <v>       0.01111111 </v>
   <v>       0.03333333 </v>
   <v>       0.03333333 </v>
   <v>       0.03333333 </v>
   <v>       0.03333333 </v>
   <v>       0.03333333 </v>
   <v>       0.06666667 </v>
   <v>       0.06666667 </v>
   <v>       0.06666667 </v>
   <v>       0.02222222 </v>
  </varray>
  <varray name="tetrahedronlist"  type="int" >
   <v type="int" >        4        2        2        5       13 </v>
   <v type="int" >        4        1        2        2       13 </v>
   <v type="int" >        4        1        2        8       13 </v>
   <v type="int" >        4        2        5       13       14 </v>
   <v type="int" >        8        2        9       13       14 </v>
   <v type="int" >        8        2        8        9       13 </v>
   <v type="int" >        8        3        5        6       14 </v>
   <v type="int" >        8        2        3        5       14 </v>
   <v type="int" >        4        2        3        9       14 </v>
   <v type="int" >        4        3        6       14       15 </v>
   <v type="int" >        4        3       10       14       15 </v>
   <v type="int" >        4        3        9       10       14 </v>
   <v type="int" >        4        4        6        6       15 </v>
   <v type="int" >        4        3        4        6       15 </v>
   <v type="int" >        4        3        4       10       15 </v>
   <v type="int" >        4        4        6       15       16 </v>
   <v type="int" >        4        4       11       15       16 </v>
   <v type="int" >        4        4       10       11       15 </v>
   <v type="int" >        4        3        5        6       16 </v>
   <v type="int" >        4        3        4        6       16 </v>
   <v type="int" >        4        3        4       11       16 </v>
   <v type="int" >        4        3        5       14       16 </v>
   <v type="int" >        4        3       12       14       16 </v>
   <v type="int" >        4        3       11       12       16 </v>
   <v type="int" >        4        2        2        5       14 </v>
   <v type="int" >        4        2        3       12       14 </v>
   <v type="int" >        4        2        2        9       14 </v>
   <v type="int" >        4        2       12       13       14 </v>
   <v type="int" >        4        1        2        2        9 </v>
   <v type="int" >        4        1        2        9       13 </v>
   <v type="int" >        4        1        8        9       13 </v>
   <v type="int" >        4        3        5        6       12 </v>
   <v type="int" >        4        2        3        5       12 </v>
   <v type="int" >        4        2        5       12       13 </v>
   <v type="int" >        4        5        6       12       16 </v>
   <v type="int" >        4        5       12       14       16 </v>
   <v type="int" >        4        5       12       13       14 </v>
   <v type="int" >        8        6        6        7       16 </v>
   <v type="int" >        4        5        6        6       16 </v>
   <v type="int" >        4        5        6       14       16 </v>
   <v type="int" >        8        6        7       16       17 </v>
   <v type="int" >       16        6       15       16       17 </v>
   <v type="int" >        8        6       14       15       16 </v>
   <v type="int" >        8        6        6        7       17 </v>
   <v type="int" >        8        6        6       15       17 </v>
   <v type="int" >        4        3        5        6       15 </v>
   <v type="int" >        4        5        6        6       15 </v>
   <v type="int" >        4        5        6       15       16 </v>
   <v type="int" >        4        3        5       10       15 </v>
   <v type="int" >        4        5       10       14       15 </v>
   <v type="int" >        4        5       14       15       16 </v>
   <v type="int" >        4        2        3        5       10 </v>
   <v type="int" >        4        2        5       10       14 </v>
   <v type="int" >        4        2        9       10       14 </v>
   <v type="int" >        4        4        6        6       11 </v>
   <v type="int" >        8        3        4        6       11 </v>
   <v type="int" >        4        3        6       11       12 </v>
   <v type="int" >        4        6        6       11       15 </v>
   <v type="int" >        8        6       11       15       16 </v>
   <v type="int" >        4        6       11       12       16 </v>
   <v type="int" >        8        6        6        7       15 </v>
   <v type="int" >        8        6        7       15       16 </v>
   <v type="int" >        8        7       15       16       17 </v>
   <v type="int" >        4        4        6        6       16 </v>
   <v type="int" >        4        4        6       11       16 </v>
   <v type="int" >        4        3        6       11       15 </v>
   <v type="int" >        4        3       10       11       15 </v>
   <v type="int" >        4        3        5        6       10 </v>
   <v type="int" >        4        3        4        6       10 </v>
   <v type="int" >        4        4        6       10       11 </v>
   <v type="int" >        4        5        6       10       14 </v>
   <v type="int" >        4        6       10       14       15 </v>
   <v type="int" >        4        6       10       11       15 </v>
   <v type="int" >        4        5        6        6       14 </v>
   <v type="int" >        4        6        6       14       15 </v>
   <v type="int" >        4        3        6       12       14 </v>
   <v type="int" >        4        6       12       14       16 </v>
   <v type="int" >        4        3        4        6       12 </v>
   <v type="int" >        4        4        6       12       16 </v>
   <v type="int" >        4        4       11       12       16 </v>
   <v type="int" >        4        2        2        5        9 </v>
   <v type="int" >        4        2        3        5        9 </v>
   <v type="int" >        4        3        5        9       10 </v>
   <v type="int" >        4        2        5        9       13 </v>
   <v type="int" >        4        5        9       13       14 </v>
   <v type="int" >        4        5        9       10       14 </v>
   <v type="int" >        4        2        3        5       13 </v>
   <v type="int" >        4        3        5       13       14 </v>
   <v type="int" >        4        3       12       13       14 </v>
   <v type="int" >        4        1        2        2        8 </v>
   <v type="int" >        4        2        2        8        9 </v>
   <v type="int" >        4        9       13       14       23 </v>
   <v type="int" >        4        8        9       13       23 </v>
   <v type="int" >        4        8        9       18       23 </v>
   <v type="int" >        4        9       14       23       24 </v>
   <v type="int" >        4        9       19       23       24 </v>
   <v type="int" >        4        9       18       19       23 </v>
   <v type="int" >        4       10       14       15       24 </v>
   <v type="int" >        4        9       10       14       24 </v>
   <v type="int" >        4        9       10       19       24 </v>
   <v type="int" >        4       10       15       24       25 </v>
   <v type="int" >        4       10       20       24       25 </v>
   <v type="int" >        4       10       19       20       24 </v>
   <v type="int" >        4       11       15       16       25 </v>
   <v type="int" >        4       10       11       15       25 </v>
   <v type="int" >        4       10       11       20       25 </v>
   <v type="int" >        4       11       16       25       26 </v>
   <v type="int" >        4       11       21       25       26 </v>
   <v type="int" >        4       11       20       21       25 </v>
   <v type="int" >        4       12       14       16       26 </v>
   <v type="int" >        4       11       12       16       26 </v>
   <v type="int" >        4       11       12       21       26 </v>
   <v type="int" >        4       12       14       24       26 </v>
   <v type="int" >        4       12       22       24       26 </v>
   <v type="int" >        4       12       21       22       26 </v>
   <v type="int" >        4        9       13       14       24 </v>
   <v type="int" >        4       12       13       14       24 </v>
   <v type="int" >        4       12       13       22       24 </v>
   <v type="int" >        4        9       13       19       24 </v>
   <v type="int" >        4       13       19       23       24 </v>
   <v type="int" >        4       13       22       23       24 </v>
   <v type="int" >        4        8        9       13       19 </v>
   <v type="int" >        4        8       13       19       23 </v>
   <v type="int" >        4        8       18       19       23 </v>
   <v type="int" >        4       12       14       16       22 </v>
   <v type="int" >        4       12       13       14       22 </v>
   <v type="int" >        4       13       14       22       23 </v>
   <v type="int" >        4       14       16       22       26 </v>
   <v type="int" >        4       14       22       24       26 </v>
   <v type="int" >        4       14       22       23       24 </v>
   <v type="int" >        8       15       16       17       26 </v>
   <v type="int" >        4       14       15       16       26 </v>
   <v type="int" >        4       14       15       24       26 </v>
   <v type="int" >        8       15       17       26       27 </v>
   <v type="int" >        8       15       25       26       27 </v>
   <v type="int" >        4       15       24       25       26 </v>
   <v type="int" >        8       15       16       17       27 </v>
   <v type="int" >        8       15       16       25       27 </v>
   <v type="int" >        8       16       25       26       27 </v>
   <v type="int" >        4       10       14       15       25 </v>
   <v type="int" >        4       14       15       16       25 </v>
   <v type="int" >        4       14       16       25       26 </v>
   <v type="int" >        4       10       14       20       25 </v>
   <v type="int" >        4       14       20       24       25 </v>
   <v type="int" >        4       14       24       25       26 </v>
   <v type="int" >        4        9       10       14       20 </v>
   <v type="int" >        4        9       14       20       24 </v>
   <v type="int" >        4        9       19       20       24 </v>
   <v type="int" >        4       11       15       16       21 </v>
   <v type="int" >        4       11       12       16       21 </v>
   <v type="int" >        4       12       16       21       22 </v>
   <v type="int" >        4       15       16       21       25 </v>
   <v type="int" >        4       16       21       25       26 </v>
   <v type="int" >        4       16       21       22       26 </v>
   <v type="int" >        8       15       16       17       25 </v>
   <v type="int" >        8       16       17       25       26 </v>
   <v type="int" >        8       17       25       26       27 </v>
   <v type="int" >        4       11       15       16       26 </v>
   <v type="int" >        4       11       15       21       26 </v>
   <v type="int" >        4       15       21       25       26 </v>
   <v type="int" >        4       10       11       15       21 </v>
   <v type="int" >        4       10       15       21       25 </v>
   <v type="int" >        4       10       20       21       25 </v>
   <v type="int" >        4       10       14       15       20 </v>
   <v type="int" >        4       10       11       15       20 </v>
   <v type="int" >        4       11       15       20       21 </v>
   <v type="int" >        4       14       15       20       24 </v>
   <v type="int" >        4       15       20       24       25 </v>
   <v type="int" >        4       15       20       21       25 </v>
   <v type="int" >        4       12       14       16       24 </v>
   <v type="int" >        4       14       15       16       24 </v>
   <v type="int" >        4       15       16       24       25 </v>
   <v type="int" >        4       12       16       22       24 </v>
   <v type="int" >        4       16       22       24       26 </v>
   <v type="int" >        4       16       24       25       26 </v>
   <v type="int" >        4       11       12       16       22 </v>
   <v type="int" >        4       11       16       22       26 </v>
   <v type="int" >        4       11       21       22       26 </v>
   <v type="int" >        4        9       13       14       19 </v>
   <v type="int" >        4        9       10       14       19 </v>
   <v type="int" >        4       10       14       19       20 </v>
   <v type="int" >        4       13       14       19       23 </v>
   <v type="int" >        4       14       19       23       24 </v>
   <v type="int" >        4       14       19       20       24 </v>
   <v type="int" >        4       12       13       14       23 </v>
   <v type="int" >        4       12       14       23       24 </v>
   <v type="int" >        4       12       22       23       24 </v>
   <v type="int" >        4        8        9       13       18 </v>
   <v type="int" >        4        9       13       18       19 </v>
   <v type="int" >        4       13       18       19       23 </v>
   <v type="int" >        4       19       19       23       24 </v>
   <v type="int" >        4       18       19       19       23 </v>
   <v type="int" >        2       18       18       19       19 </v>
   <v type="int" >        2       19       19       24       24 </v>
   <v type="int" >        4       20       24       24       25 </v>
   <v type="int" >        4       19       20       24       24 </v>
   <v type="int" >        8       19       20       23       24 </v>
   <v type="int" >        8       20       24       25       26 </v>
   <v type="int" >        8       20       22       24       26 </v>
   <v type="int" >        8       20       22       23       24 </v>
   <v type="int" >        8       21       25       26       26 </v>
   <v type="int" >        8       20       21       25       26 </v>
   <v type="int" >        8       20       21       22       26 </v>
   <v type="int" >        4       21       21       25       26 </v>
   <v type="int" >        4       21       21       22       26 </v>
   <v type="int" >        4       22       24       25       26 </v>
   <v type="int" >        4       21       22       25       26 </v>
   <v type="int" >        4       21       21       22       25 </v>
   <v type="int" >        4       22       24       24       25 </v>
   <v type="int" >        4       20       22       24       25 </v>
   <v type="int" >        4       20       21       22       25 </v>
   <v type="int" >        4       19       23       24       24 </v>
   <v type="int" >        4       22       23       24       24 </v>
   <v type="int" >        8       19       23       23       24 </v>
   <v type="int" >        8       18       19       23       23 </v>
   <v type="int" >        4       18       18       19       23 </v>
   <v type="int" >        8       25       25       26       27 </v>
   <v type="int" >        4       24       25       25       26 </v>
   <v type="int" >        2       24       24       25       25 </v>
   <v type="int" >        4       25       25       27       27 </v>
   <v type="int" >        8       25       26       27       27 </v>
   <v type="int" >       16       25       26       26       27 </v>
   <v type="int" >        8       24       25       26       26 </v>
   <v type="int" >        4       22       24       24       26 </v>
   <v type="int" >        4       24       24       25       26 </v>
   <v type="int" >        4       19       20       22       24 </v>
   <v type="int" >        4       19       22       24       24 </v>
   <v type="int" >        4       19       22       23       24 </v>
   <v type="int" >        4       21       25       25       26 </v>
   <v type="int" >        2       21       21       25       25 </v>
   <v type="int" >        4       20       21       21       25 </v>
  </varray>
  <i name="volumeweight">      0.00092593 </i>
 </kpoints>
 <parameters>
  <separator name="general" >
   <i type="string" name="SYSTEM">unknown system</i>
   <i type="logical" name="LCOMPAT"> F  </i>
  </separator>
  <separator name="electronic" >
   <i type="string" name="PREC">normal</i>
   <i name="ENMAX">    450.00000000</i>
   <i name="ENAUG">    605.39200000</i>
   <i name="EDIFF">      0.00001000</i>
   <i type="int" name="IALGO">    68</i>
   <i type="int" name="IWAVPR">    10</i>
   <i type="int" name="NBANDS">    30</i>
   <i name="NELECT">     48.00000000</i>
   <i type="int" name="TURBO">     0</i>
   <i type="int" name="IRESTART">     0</i>
   <i type="int" name="NREBOOT">     0</i>
   <i type="int" name="NMIN">     0</i>
   <i name="EREF">      0.00000000</i>
   <separator name="electronic smearing" >
    <i type="int" name="ISMEAR">    -5</i>
    <i name="SIGMA">      0.20000000</i>
    <i name="KSPACING">      0.50000000</i>
    <i type="logical" name="KGAMMA"> T  </i>
   </separator>
   <separator name="electronic projectors" >
    <i type="logical" name="LREAL"> T  </i>
    <v name="ROPT">     -0.00050000     -0.00050000</v>
    <i type="int" name="LMAXPAW">  -100</i>
    <i type="int" name="LMAXMIX">     2</i>
    <i type="logical" name="NLSPLINE"> F  </i>
   </separator>
   <separator name="electronic startup" >
    <i type="int" name="ISTART">     0</i>
    <i type="int" name="ICHARG">     2</i>
    <i type="int" name="INIWAV">     1</i>
   </separator>
   <separator name="electronic spin" >
    <i type="int" name="ISPIN">     1</i>
    <i type="logical" name="LNONCOLLINEAR"> F  </i>
    <v name="MAGMOM">      1.00000000      1.00000000      1.00000000      1.00000000      1.00000000      1.00000000      1.00000000      1.00000000      1.00000000</v>
    <i name="NUPDOWN">     -1.00000000</i>
    <i type="logical" name="LSORBIT"> F  </i>
    <v name="SAXIS">      0.00000000      0.00000000      1.00000000</v>
    <i type="logical" name="LSPIRAL"> F  </i>
    <v name="QSPIRAL">      0.00000000      0.00000000      0.00000000</v>
    <i type="logical" name="LZEROZ"> F  </i>
   </separator>
   <separator name="electronic exchange-correlation" >
    <i type="logical" name="LASPH"> F  </i>
    <i type="logical" name="LMETAGGA"> F  </i>
   </separator>
   <separator name="electronic convergence" >
    <i type="int" name="NELM">    60</i>
    <i type="int" name="NELMDL">    -5</i>
    <i type="int" name="NELMIN">     4</i>
    <i name="ENINI">    450.00000000</i>
    <separator name="electronic convergence detail" >
     <i type="logical" name="LDIAG"> T  </i>
     <i type="logical" name="LSUBROT"> F  </i>
     <i name="WEIMIN">      0.00000000</i>
     <i name="EBREAK">      0.00000008</i>
     <i name="DEPER">      0.30000000</i>
     <i type="int" name="NRMM">     4</i>
     <i name="TIME">      0.40000000</i>
    </separator>
   </separator>
   <separator name="electronic mixer" >
    <i name="AMIX">      0.40000000</i>
    <i name="BMIX">      1.00000000</i>
    <i name="AMIN">      0.10000000</i>
    <i name="AMIX_MAG">      1.60000000</i>
    <i name="BMIX_MAG">      1.00000000</i>
    <separator name="electronic mixer details" >
     <i type="int" name="IMIX">     4</i>
     <i type="logical" name="MIXFIRST"> F  </i>
     <i type="int" name="MAXMIX">   -45</i>
     <i name="WC">    100.00000000</i>
     <i type="int" name="INIMIX">     1</i>
     <i type="int" name="MIXPRE">     1</i>
     <i type="int" name="MREMOVE">     5</i>
    </separator>
   </separator>
   <separator name="electronic dipolcorrection" >
    <i type="logical" name="LDIPOL"> F  </i>
    <i type="logical" name="LMONO"> F  </i>
    <i type="int" name="IDIPOL">     0</i>
    <i name="EPSILON">      1.00000000</i>
    <v name="DIPOL">   -100.00000000   -100.00000000   -100.00000000</v>
    <i name="EFIELD">      0.00000000</i>
   </separator>
  </separator>
  <separator name="grids" >
   <i type="int" name="NGX">    28</i>
   <i type="int" name="NGY">    28</i>
   <i type="int" name="NGZ">    28</i>
   <i type="int" name="NGXF">    56</i>
   <i type="int" name="NGYF">    56</i>
   <i type="int" name="NGZF">    56</i>
   <i type="logical" name="ADDGRID"> F  </i>
  </separator>
  <separator name="ionic" >
   <i type="int" name="NSW">     0</i>
   <i type="int" name="IBRION">    -1</i>
   <i type="int" name="MDALGO">     0</i>
   <i type="int" name="ISIF">     2</i>
   <i name="PSTRESS">      0.00000000</i>
   <i name="EDIFFG">      0.00010000</i>
   <i type="int" name="NFREE">     0</i>
   <i name="POTIM">      0.50000000</i>
   <i name="SMASS">     -3.00000000</i>
   <i name="SCALEE">      1.00000000</i>
  </separator>
  <separator name="ionic md" >
   <i name="TEBEG">      0.00010000</i>
   <i name="TEEND">      0.00010000</i>
   <i type="int" name="NBLOCK">     1</i>
   <i type="int" name="KBLOCK">     1</i>
   <i type="int" name="NPACO">   256</i>
   <i name="APACO">     16.00000000</i>
  </separator>
  <separator name="symmetry" >
   <i type="int" name="ISYM">     2</i>
   <i name="SYMPREC">      0.00001000</i>
  </separator>
  <separator name="dos" >
   <i type="int" name="LORBIT">     0</i>
   <v name="RWIGS">     -1.00000000     -1.00000000</v>
   <i type="int" name="NEDOS">   301</i>
   <i name="EMIN">     10.00000000</i>
   <i name="EMAX">    -10.00000000</i>
   <i name="EFERMI">      0.00000000</i>
  </separator>
  <separator name="writing" >
   <i type="int" name="NWRITE">     2</i>
   <i type="logical" name="LWAVE"> F  </i>
   <i type="logical" name="LDOWNSAMPLE"> F  </i>
   <i type="logical" name="LCHARG"> T  </i>
   <i type="logical" name="LPARD"> F  </i>
   <i type="logical" name="LVTOT"> F  </i>
   <i type="logical" name="LVHAR"> F  </i>
   <i type="logical" name="LELF"> F  </i>
   <i type="logical" name="LOPTICS"> F  </i>
   <v name="STM">      0.00000000      0.00000000      0.00000000      0.00000000      0.00000000      0.00000000      0.00000000</v>
  </separator>
  <separator name="performance" >
   <i type="int" name="NPAR">     2</i>
   <i type="int" name="NSIM">     4</i>
   <i type="int" name="NBLK">    -1</i>
   <i type="logical" name="LPLANE"> T  </i>
   <i type="logical" name="LSCALAPACK"> T  </i>
   <i type="logical" name="LSCAAWARE"> F  </i>
   <i type="logical" name="LSCALU"> F  </i>
   <i type="logical" name="LASYNC"> F  </i>
   <i type="logical" name="LORBITALREAL"> F  </i>
  </separator>
  <separator name="miscellaneous" >
   <i type="int" name="IDIOT">     3</i>
   <i type="int" name="ISPECIAL">     0</i>
   <i type="logical" name="LMUSIC"> F  </i>
   <v name="POMASS">     28.08500000     16.00000000</v>
   <v name="DARWINR">      0.00000000      0.00000000</v>
   <v name="DARWINV">      1.00000000      1.00000000</v>
   <i type="logical" name="LCORR"> T  </i>
  </separator>
  <i type="logical" name="GGA_COMPAT"> T  </i>
  <i type="logical" name="LBERRY"> F  </i>
  <i type="int" name="ICORELEVEL">     0</i>
  <i type="logical" name="LDAU"> F  </i>
  <i type="int" name="I_CONSTRAINED_M">     0</i>
  <separator name="electronic exchange-correlation" >
   <i type="string" name="GGA">--</i>
   <i type="int" name="VOSKOWN">     0</i>
   <i type="logical" name="LHFCALC"> F  </i>
   <i type="string" name="PRECFOCK"></i>
   <i type="logical" name="LSYMGRAD"> F  </i>
   <i type="logical" name="LHFONE"> F  </i>
   <i type="logical" name="LRHFCALC"> F  </i>
   <i type="logical" name="LTHOMAS"> F  </i>
   <i type="logical" name="LMODELHF"> F  </i>
   <i name="ENCUT4O">     -1.00000000</i>
   <i type="int" name="EXXOEP">     0</i>
   <i type="int" name="FOURORBIT">     0</i>
   <i name="AEXX">      0.00000000</i>
   <i name="HFALPHA">      0.00000000</i>
   <i name="MCALPHA">      0.00000000</i>
   <i name="ALDAX">      1.00000000</i>
   <i name="AGGAX">      1.00000000</i>
   <i name="ALDAC">      1.00000000</i>
   <i name="AGGAC">      1.00000000</i>
   <i type="int" name="NKREDX">     1</i>
   <i type="int" name="NKREDY">     1</i>
   <i type="int" name="NKREDZ">     1</i>
   <i type="logical" name="SHIFTRED"> F  </i>
   <i type="logical" name="ODDONLY"> F  </i>
   <i type="logical" name="EVENONLY"> F  </i>
   <i type="int" name="LMAXFOCK">     0</i>
   <i type="int" name="NMAXFOCKAE">     0</i>
   <i type="logical" name="LFOCKAEDFT"> F  </i>
   <i name="HFSCREEN">      0.00000000</i>
   <i name="HFSCREENC">      0.00000000</i>
   <i type="int" name="NBANDSGWLOW">     0</i>
  </separator>
  <separator name="vdW DFT" >
   <i type="logical" name="LUSE_VDW"> F  </i>
   <i name="Zab_VDW">     -0.84910000</i>
   <i name="PARAM1">      0.12340000</i>
   <i name="PARAM2">      1.00000000</i>
   <i name="PARAM3">      0.00000000</i>
  </separator>
  <separator name="model GW" >
   <i type="int" name="MODEL_GW">     0</i>
   <i name="MODEL_EPS0">      7.53504921</i>
   <i name="MODEL_ALPHA">      1.00000000</i>
  </separator>
  <separator name="linear response parameters" >
   <i type="logical" name="LEPSILON"> F  </i>
   <i type="logical" name="LRPA"> F  </i>
   <i type="logical" name="LNABLA"> F  </i>
   <i type="logical" name="LVEL"> F  </i>
   <i type="int" name="KINTER">     0</i>
   <i name="CSHIFT">      0.10000000</i>
   <i name="OMEGAMAX">     -1.00000000</i>
   <i name="DEG_THRESHOLD">      0.00200000</i>
   <i name="RTIME">     -0.10000000</i>
   <i name="WPLASMAI">      0.00000000</i>
   <v name="DFIELD">      0.00000000      0.00000000      0.00000000</v>
   <v name="WPLASMA">      0.00000000      0.00000000      0.00000000      0.00000000      0.00000000      0.00000000      0.00000000      0.00000000      0.00000000</v>
  </separator>
  <separator name="orbital magnetization" >
   <i type="logical" name="NUCIND"> F  </i>
   <v name="MAGPOS">      0.00000000      0.00000000      0.00000000</v>
   <i type="logical" name="LNICSALL"> T  </i>
   <i type="logical" name="ORBITALMAG"> F  </i>
   <i type="logical" name="LMAGBLOCH"> F  </i>
   <i type="logical" name="LCHIMAG"> F  </i>
   <i type="logical" name="LGAUGE"> T  </i>
   <i type="int" name="MAGATOM">     0</i>
   <v name="MAGDIPOL">      0.00000000      0.00000000      0.00000000</v>
   <v name="AVECCONST">      0.00000000      0.00000000      0.00000000</v>
  </separator>
  <separator name="response functions" >
   <i type="logical" name="LADDER"> F  </i>
   <i type="logical" name="LRPAFORCE"> F  </i>
   <i type="logical" name="LFXC"> F  </i>
   <i type="logical" name="LHARTREE"> T  </i>
   <i type="int" name="IBSE">     0</i>
   <v type="int" name="KPOINT">    -1     0     0     0</v>
   <i type="logical" name="LTCTE"> F  </i>
   <i type="logical" name="LTETE"> F  </i>
   <i type="logical" name="LTRIPLET"> F  </i>
   <i type="logical" name="LFXCEPS"> F  </i>
   <i type="logical" name="LFXHEG"> F  </i>
   <i type="int" name="NATURALO">     2</i>
   <i type="logical" name="L2ORDER"> F  </i>
   <i type="logical" name="LMP2LT"> F  </i>
   <i type="logical" name="LUSEW"> F  </i>
   <i name="ENCUTGW">     -2.00000000</i>
   <i name="ENCUTGWSOFT">     -2.00000000</i>
   <i name="ENCUTLF">     -1.00000000</i>
   <i type="int" name="LMAXMP2">    -1</i>
   <i name="SCISSOR">      0.00000000</i>
   <i type="int" name="NOMEGA">     0</i>
   <i type="int" name="NOMEGAR">     0</i>
   <i type="int" name="NBANDSGW">    -1</i>
   <i type="int" name="NBANDSO">    -1</i>
   <i type="int" name="NBANDSV">    -1</i>
   <i type="int" name="NELM">     1</i>
   <i type="int" name="NELMHF">     1</i>
   <i type="int" name="DIM">     3</i>
   <i type="int" name="ANTIRES">     0</i>
   <i name="OMEGAMAX">    -30.00000000</i>
   <i name="OMEGAMIN">    -30.00000000</i>
   <i name="OMEGATL">   -200.00000000</i>
   <i type="int" name="OMEGAGRID">   140</i>
   <i name="CSHIFT">     -0.10000000</i>
   <i type="logical" name="SELFENERGY"> F  </i>
   <i type="logical" name="LSPECTRAL"> F  </i>
   <i type="logical" name="LSPECTRALGW"> F  </i>
   <i type="logical" name="LSINGLES"> F  </i>
   <i type="logical" name="LFERMIGW"> F  </i>
   <i type="logical" name="ODDONLYGW"> F  </i>
   <i type="logical" name="EVENONLYGW"> F  </i>
   <i type="int" name="NKREDLFX">     1</i>
   <i type="int" name="NKREDLFY">     1</i>
   <i type="int" name="NKREDLFZ">     1</i>
   <i type="int" name="MAXMEM">  2800</i>
   <i type="int" name="TELESCOPE">     0</i>
   <i type="int" name="TAUPAR">     1</i>
   <i type="int" name="OMEGAPAR">    -1</i>
   <i name="LAMBDA">      1.00000000</i>
  </separator>
  <separator name="External order field" >
   <i name="OFIELD_KAPPA">      0.00000000</i>
   <v name="OFIELD_K">      0.00000000      0.00000000      0.00000000</v>
   <i name="OFIELD_Q6_NEAR">      0.00000000</i>
   <i name="OFIELD_Q6_FAR">      0.00000000</i>
   <i name="OFIELD_A">      0.00000000</i>
  </separator>
 </parameters>
 <atominfo>
  <atoms>       9 </atoms>
  <types>       2 </types>
  <array name="atoms" >
   <dimension dim="1">ion</dimension>
   <field type="string">element</field>
   <field type="int">atomtype</field>
   <set>
    <rc><c>Si</c><c>   1</c></rc>
    <rc><c>Si</c><c>   1</c></rc>
    <rc><c>Si</c><c>   1</c></rc>
    <rc><c>O </c><c>   2</c></rc>
    <rc><c>O </c><c>   2</c></rc>
    <rc><c>O </c><c>   2</c></rc>
    <rc><c>O </c><c>   2</c></rc>
    <rc><c>O </c><c>   2</c></rc>
    <rc><c>O </c><c>   2</c></rc>
   </set>
  </array>
  <array name="atomtypes" >
   <dimension dim="1">type</dimension>
   <field type="int">atomspertype</field>
   <field type="string">element</field>
   <field>mass</field>
   <field>valence</field>
   <field type="string">pseudopotential</field>
   <set>
    <rc><c>   3</c><c>Si</c><c>     28.08500000</c><c>      4.00000000</c><c> PAW_PBE Si 05Jan2001                   </c></rc>
    <rc><c>   6</c><c>O </c><c>     16.00000000</c><c>      6.00000000</c><c> PAW_PBE O 08Apr2002                    </c></rc>
   </set>
  </array>
 </atominfo>
 <structure name="initialpos" >
  <crystal>
   <varray name="basis" >
    <v>       4.91380000       0.00000000       0.00000000 </v>
    <v>      -2.45690000       4.25547563       0.00000000 </v>
    <v>       0.00000000       0.00000000       5.40520000 </v>
   </varray>
   <i name="volume">    113.02573808 </i>
   <varray name="rec_basis" >
    <v>       0.20350849       0.11749568       0.00000000 </v>
    <v>       0.00000000       0.23499136       0.00000000 </v>
    <v>       0.00000000       0.00000000       0.18500703 </v>
   </varray>
  </crystal>
  <varray name="positions" >
   <v>       0.46980000       0.00000000       0.66666667 </v>
   <v>       0.53020000       0.53020000       0.00000000 </v>
   <v>       0.00000000       0.46980000       0.33333333 </v>
   <v>       0.41450000       0.26620000       0.78560000 </v>
   <v>       0.58550000       0.85170000       0.88106667 </v>
   <v>       0.14830000       0.73380000       0.54773333 </v>
   <v>       0.26620000       0.41450000       0.21440000 </v>
   <v>       0.85170000       0.58550000       0.11893333 </v>
   <v>       0.73380000       0.14830000       0.45226667 </v>
  </varray>
 </structure>
 <calculation>
  <scstep>
   <time name="dav">    1.00    1.13</time>
   <time name="total">    1.04    1.31</time>
   <energy>
    <i name="alphaZ">     69.72428684 </i>
    <i name="ewald">  -1887.17190222 </i>
    <i name="hartreedc">   -937.16683993 </i>
    <i name="XCdc">    142.01201933 </i>
    <i name="pawpsdc">   1574.92322788 </i>
    <i name="pawaedc">  -1533.24131965 </i>
    <i name="eentropy">      0.00000000 </i>
    <i name="bandstr">    -48.43548005 </i>
    <i name="atom">   2903.23703609 </i>
    <i name="e_fr_energy">    283.88102830 </i>
    <i name="e_wo_entrp">    283.88102830 </i>
    <i name="e_0_energy">    283.88102830 </i>
   </energy>
  </scstep>
  <scstep>
   <time name="dav">    1.20    1.22</time>
   <time name="total">    1.21    1.22</time>
   <energy>
    <i name="e_fr_energy">    -62.32986772 </i>
    <i name="e_wo_entrp">    -62.32986772 </i>
    <i name="e_0_energy">    -62.32986772 </i>
   </energy>
  </scstep>
  <scstep>
   <time name="dav">    1.14    1.15</time>
   <time name="total">    1.14    1.15</time>
   <energy>
    <i name="e_fr_energy">    -80.39774618 </i>
    <i name="e_wo_entrp">    -80.39774618 </i>
    <i name="e_0_energy">    -80.39774618 </i>
   </energy>
  </scstep>
  <scstep>
   <time name="dav">    1.14    1.16</time>
   <time name="total">    1.14    1.16</time>
   <energy>
    <i name="e_fr_energy">    -80.61638752 </i>
    <i name="e_wo_entrp">    -80.61638752 </i>
    <i name="e_0_energy">    -80.61638752 </i>
   </energy>
  </scstep>
  <scstep>
   <time name="dav">    1.08    1.09</time>
   <time name="total">    1.15    1.16</time>
   <energy>
    <i name="e_fr_energy">    -80.62040952 </i>
    <i name="e_wo_entrp">    -80.62040952 </i>
    <i name="e_0_energy">    -80.62040952 </i>
   </energy>
  </scstep>
  <scstep>
   <time name="diag">    0.21    0.21</time>
   <time name="diis">    0.60    0.60</time>
   <time name="orth">    0.02    0.02</time>
   <time name="total">    0.92    0.92</time>
   <energy>
    <i name="e_fr_energy">    -71.03243941 </i>
    <i name="e_wo_entrp">    -71.03243941 </i>
    <i name="e_0_energy">    -71.03243941 </i>
   </energy>
  </scstep>
  <scstep>
   <time name="diag">    0.21    0.21</time>
   <time name="diis">    0.67    0.68</time>
   <time name="orth">    0.02    0.02</time>
   <time name="total">    0.99    1.00</time>
   <energy>
    <i name="e_fr_energy">    -71.01342176 </i>
    <i name="e_wo_entrp">    -71.01342176 </i>
    <i name="e_0_energy">    -71.01342176 </i>
   </energy>
  </scstep>
  <scstep>
   <time name="diag">    0.21    0.21</time>
   <time name="diis">    0.66    0.66</time>
   <time name="orth">    0.02    0.02</time>
   <time name="total">    0.98    1.04</time>
   <energy>
    <i name="e_fr_energy">    -71.03372994 </i>
    <i name="e_wo_entrp">    -71.03372994 </i>
    <i name="e_0_energy">    -71.03372994 </i>
   </energy>
  </scstep>
  <scstep>
   <time name="diag">    0.21    0.21</time>
   <time name="diis">    0.68    0.69</time>
   <time name="orth">    0.02    0.02</time>
   <time name="total">    1.01    1.01</time>
   <energy>
    <i name="e_fr_energy">    -71.02656665 </i>
    <i name="e_wo_entrp">    -71.02656665 </i>
    <i name="e_0_energy">    -71.02656665 </i>
   </energy>
  </scstep>
  <scstep>
   <time name="diag">    0.21    0.21</time>
   <time name="diis">    0.69    0.69</time>
   <time name="orth">    0.02    0.02</time>
   <time name="total">    1.01    1.02</time>
   <energy>
    <i name="e_fr_energy">    -71.02972232 </i>
    <i name="e_wo_entrp">    -71.02972232 </i>
    <i name="e_0_energy">    -71.02972232 </i>
   </energy>
  </scstep>
  <scstep>
   <time name="diag">    0.21    0.21</time>
   <time name="diis">    0.68    0.69</time>
   <time name="orth">    0.02    0.02</time>
   <time name="total">    1.00    1.01</time>
   <energy>
    <i name="e_fr_energy">    -71.02838637 </i>
    <i name="e_wo_entrp">    -71.02838637 </i>
    <i name="e_0_energy">    -71.02838637 </i>
   </energy>
  </scstep>
  <scstep>
   <time name="diag">    0.21    0.21</time>
   <time name="diis">    0.68    0.69</time>
   <time name="orth">    0.02    0.02</time>
   <time name="total">    1.01    1.01</time>
   <energy>
    <i name="e_fr_energy">    -71.02832561 </i>
    <i name="e_wo_entrp">    -71.02832561 </i>
    <i name="e_0_energy">    -71.02832561 </i>
   </energy>
  </scstep>
  <scstep>
   <time name="diag">    0.21    0.21</time>
   <time name="diis">    0.52    0.53</time>
   <time name="orth">    0.02    0.02</time>
   <time name="total">    0.79    0.79</time>
   <energy>
    <i name="alphaZ">     69.72428684 </i>
    <i name="ewald">  -1887.17190222 </i>
    <i name="hartreedc">  -1071.37471173 </i>
    <i name="XCdc">    151.12218757 </i>
    <i name="pawpsdc">   2059.72347512 </i>
    <i name="pawaedc">  -2020.46092719 </i>
    <i name="eentropy">      0.00000000 </i>
    <i name="bandstr">   -275.82777253 </i>
    <i name="atom">   2903.23703609 </i>
    <i name="e_fr_energy">    -71.02832805 </i>
    <i name="e_wo_entrp">    -71.02832805 </i>
    <i name="e_0_energy">    -71.02832805 </i>
   </energy>
  </scstep>
  <structure>
   <crystal>
    <varray name="basis" >
     <v>       4.91380000       0.00000000       0.00000000 </v>
     <v>      -2.45690000       4.25547563       0.00000000 </v>
     <v>       0.00000000       0.00000000       5.40520000 </v>
    </varray>
    <i name="volume">    113.02573808 </i>
    <varray name="rec_basis" >
     <v>       0.20350849       0.11749568       0.00000000 </v>
     <v>       0.00000000       0.23499136       0.00000000 </v>
     <v>       0.00000000       0.00000000       0.18500703 </v>
    </varray>
   </crystal>
   <varray name="positions" >
    <v>       0.46980000       0.00000000       0.66666667 </v>
    <v>       0.53020000       0.53020000       0.00000000 </v>
    <v>       0.00000000       0.46980000       0.33333333 </v>
    <v>       0.41450000       0.26620000       0.78560000 </v>
    <v>       0.58550000       0.85170000       0.88106667 </v>
    <v>       0.14830000       0.73380000       0.54773333 </v>
    <v>       0.26620000       0.41450000       0.21440000 </v>
    <v>       0.85170000       0.58550000       0.11893333 </v>
    <v>       0.73380000       0.14830000       0.45226667 </v>
   </varray>
  </structure>
  <varray name="forces" >
   <v>       0.40967789       0.00000000       0.00000000 </v>
   <v>      -0.20483895      -0.35479146       0.00000000 </v>
   <v>      -0.20483895       0.35479146      -0.00000000 </v>
   <v>      -0.52168166       0.28514598       0.06730353 </v>
   <v>       0.01389717       0.59436257      -0.06730353 </v>
   <v>      -0.52168166      -0.28514598      -0.06730353 </v>
   <v>       0.50778450      -0.30921658      -0.06730353 </v>
   <v>       0.50778450       0.30921658       0.06730353 </v>
   <v>       0.01389717      -0.59436257       0.06730353 </v>
  </varray>
  <varray name="stress" >
   <v>      76.51921462      -0.00000000       0.00000000 </v>
   <v>      -0.00000000      76.51921462      -0.00000000 </v>
   <v>      -0.00000000       0.00000000      63.18544088 </v>
  </varray>
  <energy>
   <i name="e_fr_energy">    -71.02832805 </i>
   <i name="e_wo_entrp">    -71.02832805 </i>
   <i name="e_0_energy">      0.00000000 </i>
  </energy>
  <time name="totalsc">   15.12   15.85</time>
  <eigenvalues>
   <array>
    <dimension dim="1">band</dimension>
    <dimension dim="2">kpoint</dimension>
    <dimension dim="3">spin</dimension>
    <field>eigene</field>
    <field>occ</field>
    <set>
     <set comment="spin 1">
      <set comment="kpoint 1">
       <r>  -18.3709    1.0000 </r>
       <r>  -16.8343    1.0000 </r>
       <r>  -16.8343    1.0000 </r>
       <r>  -16.1987    1.0000 </r>
       <r>  -16.1512    1.0000 </r>
       <r>  -16.1512    1.0000 </r>
       <r>   -7.1744    1.0000 </r>
       <r>   -7.1744    1.0000 </r>
       <r>   -4.3337    1.0000 </r>
       <r>   -4.3278    1.0000 </r>
       <r>   -4.1758    1.0000 </r>
       <r>   -4.1757    1.0000 </r>
       <r>   -1.8575    1.0000 </r>
       <r>   -1.8575    1.0000 </r>
       <r>   -1.6200    1.0000 </r>
       <r>   -1.3599    1.0000 </r>
       <r>   -0.4083    1.0000 </r>
       <r>   -0.4083    1.0000 </r>
       <r>   -0.3904    1.0000 </r>
       <r>    0.1129    1.0000 </r>
       <r>    0.1129    1.0000 </r>
       <r>    0.4220    1.0000 </r>
       <r>    0.7623    1.0000 </r>
       <r>    0.7623    1.0000 </r>
       <r>    7.1214    0.0000 </r>
       <r>   10.3992    0.0000 </r>
       <r>   10.3993    0.0000 </r>
       <r>   10.9017    0.0000 </r>
       <r>   10.9017    0.0000 </r>
       <r>   12.2333    0.0000 </r>
      </set>
      <set comment="kpoint 2">
       <r>  -18.2895    1.0000 </r>
       <r>  -16.9285    1.0000 </r>
       <r>  -16.8223    1.0000 </r>
       <r>  -16.2187    1.0000 </r>
       <r>  -16.1683    1.0000 </r>
       <r>  -16.1578    1.0000 </r>
       <r>   -7.2119    1.0000 </r>
       <r>   -6.9928    1.0000 </r>
       <r>   -4.3739    1.0000 </r>
       <r>   -4.3480    1.0000 </r>
       <r>   -4.2765    1.0000 </r>
       <r>   -4.0151    1.0000 </r>
       <r>   -1.9827    1.0000 </r>
       <r>   -1.7977    1.0000 </r>
       <r>   -1.5898    1.0000 </r>
       <r>   -1.1934    1.0000 </r>
       <r>   -0.6820    1.0000 </r>
       <r>   -0.4474    1.0000 </r>
       <r>   -0.4021    1.0000 </r>
       <r>    0.0498    1.0000 </r>
       <r>    0.1025    1.0000 </r>
       <r>    0.3197    1.0000 </r>
       <r>    0.8255    1.0000 </r>
       <r>    0.8593    1.0000 </r>
       <r>    7.5439    0.0000 </r>
       <r>   10.3857    0.0000 </r>
       <r>   10.4458    0.0000 </r>
       <r>   10.9365    0.0000 </r>
       <r>   11.0455    0.0000 </r>
       <r>   12.4401    0.0000 </r>
      </set>
      <set comment="kpoint 3">
       <r>  -18.0705    1.0000 </r>
       <r>  -17.1875    1.0000 </r>
       <r>  -16.7964    1.0000 </r>
       <r>  -16.2418    1.0000 </r>
       <r>  -16.1965    1.0000 </r>
       <r>  -16.1766    1.0000 </r>
       <r>   -7.2836    1.0000 </r>
       <r>   -6.5732    1.0000 </r>
       <r>   -4.6299    1.0000 </r>
       <r>   -4.3816    1.0000 </r>
       <r>   -4.2997    1.0000 </r>
       <r>   -3.7126    1.0000 </r>
       <r>   -2.0650    1.0000 </r>
       <r>   -1.6892    1.0000 </r>
       <r>   -1.5645    1.0000 </r>
       <r>   -1.1972    1.0000 </r>
       <r>   -0.9980    1.0000 </r>
       <r>   -0.5787    1.0000 </r>
       <r>   -0.4869    1.0000 </r>
       <r>   -0.0014    1.0000 </r>
       <r>    0.0679    1.0000 </r>
       <r>    0.2708    1.0000 </r>
       <r>    0.8537    1.0000 </r>
       <r>    1.0032    1.0000 </r>
       <r>    8.5433    0.0000 </r>
       <r>   10.4298    0.0000 </r>
       <r>   10.5564    0.0000 </r>
       <r>   11.0581    0.0000 </r>
       <r>   11.3968    0.0000 </r>
       <r>   11.7530    0.0000 </r>
      </set>
      <set comment="kpoint 4">
       <r>  -17.8810    1.0000 </r>
       <r>  -17.4018    1.0000 </r>
       <r>  -16.7829    1.0000 </r>
       <r>  -16.2476    1.0000 </r>
       <r>  -16.2089    1.0000 </r>
       <r>  -16.1878    1.0000 </r>
       <r>   -7.3179    1.0000 </r>
       <r>   -6.3110    1.0000 </r>
       <r>   -4.8181    1.0000 </r>
       <r>   -4.3590    1.0000 </r>
       <r>   -4.3278    1.0000 </r>
       <r>   -3.5468    1.0000 </r>
       <r>   -1.9929    1.0000 </r>
       <r>   -1.8262    1.0000 </r>
       <r>   -1.5957    1.0000 </r>
       <r>   -1.2143    1.0000 </r>
       <r>   -1.0060    1.0000 </r>
       <r>   -0.6617    1.0000 </r>
       <r>   -0.5943    1.0000 </r>
       <r>   -0.0041    1.0000 </r>
       <r>    0.0609    1.0000 </r>
       <r>    0.3013    1.0000 </r>
       <r>    0.8370    1.0000 </r>
       <r>    1.0609    1.0000 </r>
       <r>    9.3812    0.0000 </r>
       <r>   10.1202    0.0000 </r>
       <r>   10.8447    0.0000 </r>
       <r>   10.8459    0.0000 </r>
       <r>   11.6266    0.0000 </r>
       <r>   11.6985    0.0000 </r>
      </set>
      <set comment="kpoint 5">
       <r>  -18.1367    1.0000 </r>
       <r>  -17.1042    1.0000 </r>
       <r>  -16.8106    1.0000 </r>
       <r>  -16.2365    1.0000 </r>
       <r>  -16.1935    1.0000 </r>
       <r>  -16.1673    1.0000 </r>
       <r>   -7.2761    1.0000 </r>
       <r>   -6.6669    1.0000 </r>
       <r>   -4.6378    1.0000 </r>
       <r>   -4.3667    1.0000 </r>
       <r>   -4.2246    1.0000 </r>
       <r>   -3.8022    1.0000 </r>
       <r>   -2.0321    1.0000 </r>
       <r>   -1.7846    1.0000 </r>
       <r>   -1.4849    1.0000 </r>
       <r>   -1.0847    1.0000 </r>
       <r>   -1.0769    1.0000 </r>
       <r>   -0.5574    1.0000 </r>
       <r>   -0.3594    1.0000 </r>
       <r>   -0.1278    1.0000 </r>
       <r>    0.1855    1.0000 </r>
       <r>    0.2306    1.0000 </r>
       <r>    0.8446    1.0000 </r>
       <r>    0.9805    1.0000 </r>
       <r>    8.2519    0.0000 </r>
       <r>   10.4285    0.0000 </r>
       <r>   10.5700    0.0000 </r>
       <r>   11.0541    0.0000 </r>
       <r>   11.2244    0.0000 </r>
       <r>   11.9526    0.0000 </r>
      </set>
      <set comment="kpoint 6">
       <r>  -17.8877    1.0000 </r>
       <r>  -17.3826    1.0000 </r>
       <r>  -16.8027    1.0000 </r>
       <r>  -16.2450    1.0000 </r>
       <r>  -16.2072    1.0000 </r>
       <r>  -16.1852    1.0000 </r>
       <r>   -7.3412    1.0000 </r>
       <r>   -6.2109    1.0000 </r>
       <r>   -5.0373    1.0000 </r>
       <r>   -4.3187    1.0000 </r>
       <r>   -4.2270    1.0000 </r>
       <r>   -3.5546    1.0000 </r>
       <r>   -1.9812    1.0000 </r>
       <r>   -1.7821    1.0000 </r>
       <r>   -1.6557    1.0000 </r>
       <r>   -1.1617    1.0000 </r>
       <r>   -0.9991    1.0000 </r>
       <r>   -0.6928    1.0000 </r>
       <r>   -0.5044    1.0000 </r>
       <r>   -0.1860    1.0000 </r>
       <r>    0.0335    1.0000 </r>
       <r>    0.4258    1.0000 </r>
       <r>    0.8031    1.0000 </r>
       <r>    1.0723    1.0000 </r>
       <r>    9.2692    0.0000 </r>
       <r>   10.3690    0.0000 </r>
       <r>   10.6852    0.0000 </r>
       <r>   11.0890    0.0000 </r>
       <r>   11.5046    0.0000 </r>
       <r>   11.7112    0.0000 </r>
      </set>
      <set comment="kpoint 7">
       <r>  -17.6354    1.0000 </r>
       <r>  -17.6354    1.0000 </r>
       <r>  -16.8164    1.0000 </r>
       <r>  -16.2439    1.0000 </r>
       <r>  -16.1991    1.0000 </r>
       <r>  -16.1991    1.0000 </r>
       <r>   -7.3788    1.0000 </r>
       <r>   -5.6402    1.0000 </r>
       <r>   -5.6402    1.0000 </r>
       <r>   -4.2360    1.0000 </r>
       <r>   -4.2360    1.0000 </r>
       <r>   -3.4601    1.0000 </r>
       <r>   -1.8512    1.0000 </r>
       <r>   -1.8512    1.0000 </r>
       <r>   -1.8007    1.0000 </r>
       <r>   -0.9744    1.0000 </r>
       <r>   -0.9744    1.0000 </r>
       <r>   -0.8182    1.0000 </r>
       <r>   -0.6216    1.0000 </r>
       <r>   -0.1432    1.0000 </r>
       <r>   -0.1432    1.0000 </r>
       <r>    0.6618    1.0000 </r>
       <r>    0.6619    1.0000 </r>
       <r>    1.1038    1.0000 </r>
       <r>   10.0537    0.0000 </r>
       <r>   10.0537    0.0000 </r>
       <r>   10.5424    0.0000 </r>
       <r>   11.4740    0.0000 </r>
       <r>   11.6244    0.0000 </r>
       <r>   11.6525    0.0000 </r>
      </set>
      <set comment="kpoint 8">
       <r>  -18.2928    1.0000 </r>
       <r>  -17.2836    1.0000 </r>
       <r>  -16.4496    1.0000 </r>
       <r>  -16.1969    1.0000 </r>
       <r>  -16.1672    1.0000 </r>
       <r>  -16.1365    1.0000 </r>
       <r>   -7.8474    1.0000 </r>
       <r>   -6.3471    1.0000 </r>
       <r>   -4.4936    1.0000 </r>
       <r>   -4.4173    1.0000 </r>
       <r>   -4.3683    1.0000 </r>
       <r>   -3.8704    1.0000 </r>
       <r>   -1.9415    1.0000 </r>
       <r>   -1.6629    1.0000 </r>
       <r>   -1.5620    1.0000 </r>
       <r>   -1.2301    1.0000 </r>
       <r>   -0.6020    1.0000 </r>
       <r>   -0.4810    1.0000 </r>
       <r>   -0.4209    1.0000 </r>
       <r>   -0.2810    1.0000 </r>
       <r>    0.0806    1.0000 </r>
       <r>    0.5223    1.0000 </r>
       <r>    0.8129    1.0000 </r>
       <r>    0.9721    1.0000 </r>
       <r>    7.5156    0.0000 </r>
       <r>   10.2552    0.0000 </r>
       <r>   10.4208    0.0000 </r>
       <r>   10.5238    0.0000 </r>
       <r>   11.2243    0.0000 </r>
       <r>   12.1485    0.0000 </r>
      </set>
      <set comment="kpoint 9">
       <r>  -18.2152    1.0000 </r>
       <r>  -17.2824    1.0000 </r>
       <r>  -16.5325    1.0000 </r>
       <r>  -16.2116    1.0000 </r>
       <r>  -16.1859    1.0000 </r>
       <r>  -16.1473    1.0000 </r>
       <r>   -7.7024    1.0000 </r>
       <r>   -6.3553    1.0000 </r>
       <r>   -4.6719    1.0000 </r>
       <r>   -4.3753    1.0000 </r>
       <r>   -4.1789    1.0000 </r>
       <r>   -3.9199    1.0000 </r>
       <r>   -2.0417    1.0000 </r>
       <r>   -1.6468    1.0000 </r>
       <r>   -1.5258    1.0000 </r>
       <r>   -1.1521    1.0000 </r>
       <r>   -0.8314    1.0000 </r>
       <r>   -0.4948    1.0000 </r>
       <r>   -0.3915    1.0000 </r>
       <r>   -0.2367    1.0000 </r>
       <r>    0.1638    1.0000 </r>
       <r>    0.4187    1.0000 </r>
       <r>    0.7543    1.0000 </r>
       <r>    1.0142    1.0000 </r>
       <r>    7.8920    0.0000 </r>
       <r>   10.2695    0.0000 </r>
       <r>   10.5126    0.0000 </r>
       <r>   10.6074    0.0000 </r>
       <r>   11.3005    0.0000 </r>
       <r>   11.9967    0.0000 </r>
      </set>
      <set comment="kpoint 10">
       <r>  -18.0136    1.0000 </r>
       <r>  -17.3223    1.0000 </r>
       <r>  -16.7189    1.0000 </r>
       <r>  -16.2392    1.0000 </r>
       <r>  -16.2120    1.0000 </r>
       <r>  -16.1667    1.0000 </r>
       <r>   -7.4093    1.0000 </r>
       <r>   -6.3271    1.0000 </r>
       <r>   -4.9070    1.0000 </r>
       <r>   -4.3340    1.0000 </r>
       <r>   -4.0978    1.0000 </r>
       <r>   -3.8236    1.0000 </r>
       <r>   -2.1368    1.0000 </r>
       <r>   -1.7092    1.0000 </r>
       <r>   -1.4721    1.0000 </r>
       <r>   -1.2092    1.0000 </r>
       <r>   -0.8932    1.0000 </r>
       <r>   -0.5998    1.0000 </r>
       <r>   -0.4890    1.0000 </r>
       <r>   -0.0517    1.0000 </r>
       <r>    0.1632    1.0000 </r>
       <r>    0.2830    1.0000 </r>
       <r>    0.7970    1.0000 </r>
       <r>    0.9694    1.0000 </r>
       <r>    8.8084    0.0000 </r>
       <r>   10.3217    0.0000 </r>
       <r>   10.5739    0.0000 </r>
       <r>   11.0346    0.0000 </r>
       <r>   11.4087    0.0000 </r>
       <r>   11.6591    0.0000 </r>
      </set>
      <set comment="kpoint 11">
       <r>  -17.8585    1.0000 </r>
       <r>  -17.3908    1.0000 </r>
       <r>  -16.8294    1.0000 </r>
       <r>  -16.2476    1.0000 </r>
       <r>  -16.2136    1.0000 </r>
       <r>  -16.1789    1.0000 </r>
       <r>   -7.2703    1.0000 </r>
       <r>   -6.2717    1.0000 </r>
       <r>   -5.0425    1.0000 </r>
       <r>   -4.3555    1.0000 </r>
       <r>   -4.1032    1.0000 </r>
       <r>   -3.6701    1.0000 </r>
       <r>   -2.0450    1.0000 </r>
       <r>   -1.9439    1.0000 </r>
       <r>   -1.4685    1.0000 </r>
       <r>   -1.2592    1.0000 </r>
       <r>   -0.8427    1.0000 </r>
       <r>   -0.7229    1.0000 </r>
       <r>   -0.4184    1.0000 </r>
       <r>   -0.0703    1.0000 </r>
       <r>    0.1427    1.0000 </r>
       <r>    0.3353    1.0000 </r>
       <r>    0.7241    1.0000 </r>
       <r>    1.0004    1.0000 </r>
       <r>    9.5743    0.0000 </r>
       <r>   10.1856    0.0000 </r>
       <r>   10.6885    0.0000 </r>
       <r>   11.1549    0.0000 </r>
       <r>   11.5838    0.0000 </r>
       <r>   12.1339    0.0000 </r>
      </set>
      <set comment="kpoint 12">
       <r>  -18.0172    1.0000 </r>
       <r>  -17.3023    1.0000 </r>
       <r>  -16.7523    1.0000 </r>
       <r>  -16.2313    1.0000 </r>
       <r>  -16.1911    1.0000 </r>
       <r>  -16.1781    1.0000 </r>
       <r>   -7.4129    1.0000 </r>
       <r>   -6.3285    1.0000 </r>
       <r>   -4.9086    1.0000 </r>
       <r>   -4.3732    1.0000 </r>
       <r>   -4.0747    1.0000 </r>
       <r>   -3.7741    1.0000 </r>
       <r>   -2.0724    1.0000 </r>
       <r>   -1.7008    1.0000 </r>
       <r>   -1.5253    1.0000 </r>
       <r>   -1.3878    1.0000 </r>
       <r>   -0.9229    1.0000 </r>
       <r>   -0.4983    1.0000 </r>
       <r>   -0.3449    1.0000 </r>
       <r>   -0.0875    1.0000 </r>
       <r>    0.0652    1.0000 </r>
       <r>    0.3969    1.0000 </r>
       <r>    0.6390    1.0000 </r>
       <r>    1.0631    1.0000 </r>
       <r>    8.7747    0.0000 </r>
       <r>   10.3823    0.0000 </r>
       <r>   10.7673    0.0000 </r>
       <r>   11.1812    0.0000 </r>
       <r>   11.3584    0.0000 </r>
       <r>   11.7326    0.0000 </r>
      </set>
      <set comment="kpoint 13">
       <r>  -18.2158    1.0000 </r>
       <r>  -17.2784    1.0000 </r>
       <r>  -16.5438    1.0000 </r>
       <r>  -16.2102    1.0000 </r>
       <r>  -16.1752    1.0000 </r>
       <r>  -16.1512    1.0000 </r>
       <r>   -7.7035    1.0000 </r>
       <r>   -6.3554    1.0000 </r>
       <r>   -4.6761    1.0000 </r>
       <r>   -4.3764    1.0000 </r>
       <r>   -4.1931    1.0000 </r>
       <r>   -3.8914    1.0000 </r>
       <r>   -2.0149    1.0000 </r>
       <r>   -1.6641    1.0000 </r>
       <r>   -1.5204    1.0000 </r>
       <r>   -1.2029    1.0000 </r>
       <r>   -0.8746    1.0000 </r>
       <r>   -0.4096    1.0000 </r>
       <r>   -0.3804    1.0000 </r>
       <r>   -0.2571    1.0000 </r>
       <r>    0.1938    1.0000 </r>
       <r>    0.3800    1.0000 </r>
       <r>    0.7289    1.0000 </r>
       <r>    1.0438    1.0000 </r>
       <r>    7.8821    0.0000 </r>
       <r>   10.3085    0.0000 </r>
       <r>   10.5374    0.0000 </r>
       <r>   10.6574    0.0000 </r>
       <r>   11.2328    0.0000 </r>
       <r>   12.0821    0.0000 </r>
      </set>
      <set comment="kpoint 14">
       <r>  -18.0745    1.0000 </r>
       <r>  -17.2952    1.0000 </r>
       <r>  -16.6857    1.0000 </r>
       <r>  -16.2276    1.0000 </r>
       <r>  -16.2021    1.0000 </r>
       <r>  -16.1639    1.0000 </r>
       <r>   -7.4856    1.0000 </r>
       <r>   -6.3291    1.0000 </r>
       <r>   -4.8857    1.0000 </r>
       <r>   -4.3402    1.0000 </r>
       <r>   -4.0708    1.0000 </r>
       <r>   -3.8593    1.0000 </r>
       <r>   -2.0937    1.0000 </r>
       <r>   -1.6471    1.0000 </r>
       <r>   -1.5285    1.0000 </r>
       <r>   -1.2563    1.0000 </r>
       <r>   -0.9410    1.0000 </r>
       <r>   -0.4915    1.0000 </r>
       <r>   -0.4101    1.0000 </r>
       <r>   -0.1291    1.0000 </r>
       <r>    0.1802    1.0000 </r>
       <r>    0.3108    1.0000 </r>
       <r>    0.7146    1.0000 </r>
       <r>    1.0318    1.0000 </r>
       <r>    8.5233    0.0000 </r>
       <r>   10.3281    0.0000 </r>
       <r>   10.7381    0.0000 </r>
       <r>   10.8883    0.0000 </r>
       <r>   11.3543    0.0000 </r>
       <r>   11.7157    0.0000 </r>
      </set>
      <set comment="kpoint 15">
       <r>  -17.8603    1.0000 </r>
       <r>  -17.3891    1.0000 </r>
       <r>  -16.8261    1.0000 </r>
       <r>  -16.2465    1.0000 </r>
       <r>  -16.2221    1.0000 </r>
       <r>  -16.1757    1.0000 </r>
       <r>   -7.2835    1.0000 </r>
       <r>   -6.1880    1.0000 </r>
       <r>   -5.1841    1.0000 </r>
       <r>   -4.3183    1.0000 </r>
       <r>   -4.0708    1.0000 </r>
       <r>   -3.6883    1.0000 </r>
       <r>   -2.0895    1.0000 </r>
       <r>   -1.8117    1.0000 </r>
       <r>   -1.5858    1.0000 </r>
       <r>   -1.1293    1.0000 </r>
       <r>   -0.8965    1.0000 </r>
       <r>   -0.7041    1.0000 </r>
       <r>   -0.4179    1.0000 </r>
       <r>   -0.1350    1.0000 </r>
       <r>    0.1249    1.0000 </r>
       <r>    0.3775    1.0000 </r>
       <r>    0.7413    1.0000 </r>
       <r>    0.9743    1.0000 </r>
       <r>    9.4583    0.0000 </r>
       <r>   10.4470    0.0000 </r>
       <r>   10.6072    0.0000 </r>
       <r>   11.2107    0.0000 </r>
       <r>   11.4136    0.0000 </r>
       <r>   11.6786    0.0000 </r>
      </set>
      <set comment="kpoint 16">
       <r>  -17.8630    1.0000 </r>
       <r>  -17.3798    1.0000 </r>
       <r>  -16.8378    1.0000 </r>
       <r>  -16.2416    1.0000 </r>
       <r>  -16.2207    1.0000 </r>
       <r>  -16.1768    1.0000 </r>
       <r>   -7.2847    1.0000 </r>
       <r>   -6.1892    1.0000 </r>
       <r>   -5.1837    1.0000 </r>
       <r>   -4.3276    1.0000 </r>
       <r>   -4.0646    1.0000 </r>
       <r>   -3.6735    1.0000 </r>
       <r>   -2.0537    1.0000 </r>
       <r>   -1.8384    1.0000 </r>
       <r>   -1.6041    1.0000 </r>
       <r>   -1.1831    1.0000 </r>
       <r>   -0.9086    1.0000 </r>
       <r>   -0.6699    1.0000 </r>
       <r>   -0.3203    1.0000 </r>
       <r>   -0.1832    1.0000 </r>
       <r>    0.0753    1.0000 </r>
       <r>    0.4590    1.0000 </r>
       <r>    0.6546    1.0000 </r>
       <r>    1.0106    1.0000 </r>
       <r>    9.4479    0.0000 </r>
       <r>   10.3565    0.0000 </r>
       <r>   10.9133    0.0000 </r>
       <r>   11.0675    0.0000 </r>
       <r>   11.4574    0.0000 </r>
       <r>   11.7775    0.0000 </r>
      </set>
      <set comment="kpoint 17">
       <r>  -17.7352    1.0000 </r>
       <r>  -17.4734    1.0000 </r>
       <r>  -16.8768    1.0000 </r>
       <r>  -16.2412    1.0000 </r>
       <r>  -16.2384    1.0000 </r>
       <r>  -16.1791    1.0000 </r>
       <r>   -7.2390    1.0000 </r>
       <r>   -5.9328    1.0000 </r>
       <r>   -5.5163    1.0000 </r>
       <r>   -4.2957    1.0000 </r>
       <r>   -4.0603    1.0000 </r>
       <r>   -3.6155    1.0000 </r>
       <r>   -2.0575    1.0000 </r>
       <r>   -1.7538    1.0000 </r>
       <r>   -1.7503    1.0000 </r>
       <r>   -0.9655    1.0000 </r>
       <r>   -0.9093    1.0000 </r>
       <r>   -0.8428    1.0000 </r>
       <r>   -0.3605    1.0000 </r>
       <r>   -0.2048    1.0000 </r>
       <r>    0.0296    1.0000 </r>
       <r>    0.5770    1.0000 </r>
       <r>    0.6224    1.0000 </r>
       <r>    0.9693    1.0000 </r>
       <r>   10.0567    0.0000 </r>
       <r>   10.2579    0.0000 </r>
       <r>   10.6677    0.0000 </r>
       <r>   11.3742    0.0000 </r>
       <r>   11.4388    0.0000 </r>
       <r>   11.5289    0.0000 </r>
      </set>
      <set comment="kpoint 18">
       <r>  -18.0655    1.0000 </r>
       <r>  -17.7144    1.0000 </r>
       <r>  -16.2219    1.0000 </r>
       <r>  -16.1902    1.0000 </r>
       <r>  -16.1803    1.0000 </r>
       <r>  -16.1267    1.0000 </r>
       <r>   -8.2277    1.0000 </r>
       <r>   -5.5287    1.0000 </r>
       <r>   -4.8789    1.0000 </r>
       <r>   -4.5324    1.0000 </r>
       <r>   -4.5002    1.0000 </r>
       <r>   -3.6305    1.0000 </r>
       <r>   -1.7835    1.0000 </r>
       <r>   -1.5528    1.0000 </r>
       <r>   -1.5102    1.0000 </r>
       <r>   -1.0202    1.0000 </r>
       <r>   -0.8430    1.0000 </r>
       <r>   -0.7444    1.0000 </r>
       <r>   -0.6336    1.0000 </r>
       <r>   -0.4570    1.0000 </r>
       <r>   -0.0893    1.0000 </r>
       <r>    0.7672    1.0000 </r>
       <r>    0.9830    1.0000 </r>
       <r>    0.9837    1.0000 </r>
       <r>    8.4975    0.0000 </r>
       <r>    9.6501    0.0000 </r>
       <r>   10.2008    0.0000 </r>
       <r>   10.5278    0.0000 </r>
       <r>   11.2533    0.0000 </r>
       <r>   11.6943    0.0000 </r>
      </set>
      <set comment="kpoint 19">
       <r>  -18.0033    1.0000 </r>
       <r>  -17.6729    1.0000 </r>
       <r>  -16.3435    1.0000 </r>
       <r>  -16.2115    1.0000 </r>
       <r>  -16.1877    1.0000 </r>
       <r>  -16.1408    1.0000 </r>
       <r>   -8.0280    1.0000 </r>
       <r>   -5.6332    1.0000 </r>
       <r>   -5.0472    1.0000 </r>
       <r>   -4.4320    1.0000 </r>
       <r>   -4.3343    1.0000 </r>
       <r>   -3.6874    1.0000 </r>
       <r>   -1.9236    1.0000 </r>
       <r>   -1.6416    1.0000 </r>
       <r>   -1.4923    1.0000 </r>
       <r>   -1.1185    1.0000 </r>
       <r>   -0.9412    1.0000 </r>
       <r>   -0.5681    1.0000 </r>
       <r>   -0.5211    1.0000 </r>
       <r>   -0.3195    1.0000 </r>
       <r>   -0.0160    1.0000 </r>
       <r>    0.6556    1.0000 </r>
       <r>    0.9084    1.0000 </r>
       <r>    0.9381    1.0000 </r>
       <r>    8.7764    0.0000 </r>
       <r>    9.7860    0.0000 </r>
       <r>   10.3731    0.0000 </r>
       <r>   10.5683    0.0000 </r>
       <r>   11.3131    0.0000 </r>
       <r>   11.6788    0.0000 </r>
      </set>
      <set comment="kpoint 20">
       <r>  -17.8751    1.0000 </r>
       <r>  -17.5366    1.0000 </r>
       <r>  -16.6563    1.0000 </r>
       <r>  -16.2521    1.0000 </r>
       <r>  -16.1947    1.0000 </r>
       <r>  -16.1633    1.0000 </r>
       <r>   -7.5419    1.0000 </r>
       <r>   -5.9328    1.0000 </r>
       <r>   -5.2306    1.0000 </r>
       <r>   -4.3127    1.0000 </r>
       <r>   -4.0589    1.0000 </r>
       <r>   -3.8230    1.0000 </r>
       <r>   -2.1038    1.0000 </r>
       <r>   -1.9207    1.0000 </r>
       <r>   -1.3481    1.0000 </r>
       <r>   -1.1825    1.0000 </r>
       <r>   -0.9417    1.0000 </r>
       <r>   -0.4828    1.0000 </r>
       <r>   -0.3499    1.0000 </r>
       <r>   -0.1404    1.0000 </r>
       <r>    0.1236    1.0000 </r>
       <r>    0.4593    1.0000 </r>
       <r>    0.6847    1.0000 </r>
       <r>    0.8829    1.0000 </r>
       <r>    9.5019    0.0000 </r>
       <r>   10.0831    0.0000 </r>
       <r>   10.6266    0.0000 </r>
       <r>   10.8027    0.0000 </r>
       <r>   11.5740    0.0000 </r>
       <r>   11.8428    0.0000 </r>
      </set>
      <set comment="kpoint 21">
       <r>  -17.8189    1.0000 </r>
       <r>  -17.3720    1.0000 </r>
       <r>  -16.9042    1.0000 </r>
       <r>  -16.2691    1.0000 </r>
       <r>  -16.1963    1.0000 </r>
       <r>  -16.1728    1.0000 </r>
       <r>   -7.1872    1.0000 </r>
       <r>   -6.2060    1.0000 </r>
       <r>   -5.2817    1.0000 </r>
       <r>   -4.2840    1.0000 </r>
       <r>   -3.9195    1.0000 </r>
       <r>   -3.8862    1.0000 </r>
       <r>   -2.1133    1.0000 </r>
       <r>   -2.0843    1.0000 </r>
       <r>   -1.3591    1.0000 </r>
       <r>   -1.1033    1.0000 </r>
       <r>   -0.9499    1.0000 </r>
       <r>   -0.5110    1.0000 </r>
       <r>   -0.2081    1.0000 </r>
       <r>   -0.0625    1.0000 </r>
       <r>    0.1315    1.0000 </r>
       <r>    0.4144    1.0000 </r>
       <r>    0.4709    1.0000 </r>
       <r>    0.9115    1.0000 </r>
       <r>    9.9994    0.0000 </r>
       <r>   10.3880    0.0000 </r>
       <r>   10.7516    0.0000 </r>
       <r>   11.0632    0.0000 </r>
       <r>   11.4760    0.0000 </r>
       <r>   11.7533    0.0000 </r>
      </set>
      <set comment="kpoint 22">
       <r>  -17.8809    1.0000 </r>
       <r>  -17.5245    1.0000 </r>
       <r>  -16.6739    1.0000 </r>
       <r>  -16.2449    1.0000 </r>
       <r>  -16.1863    1.0000 </r>
       <r>  -16.1674    1.0000 </r>
       <r>   -7.5437    1.0000 </r>
       <r>   -5.9374    1.0000 </r>
       <r>   -5.2246    1.0000 </r>
       <r>   -4.3336    1.0000 </r>
       <r>   -4.0597    1.0000 </r>
       <r>   -3.7840    1.0000 </r>
       <r>   -2.0807    1.0000 </r>
       <r>   -1.9439    1.0000 </r>
       <r>   -1.3178    1.0000 </r>
       <r>   -1.2537    1.0000 </r>
       <r>   -1.0026    1.0000 </r>
       <r>   -0.4094    1.0000 </r>
       <r>   -0.2987    1.0000 </r>
       <r>   -0.1092    1.0000 </r>
       <r>    0.1350    1.0000 </r>
       <r>    0.3293    1.0000 </r>
       <r>    0.6336    1.0000 </r>
       <r>    0.9824    1.0000 </r>
       <r>    9.3838    0.0000 </r>
       <r>   10.3592    0.0000 </r>
       <r>   10.5586    0.0000 </r>
       <r>   11.0716    0.0000 </r>
       <r>   11.2130    0.0000 </r>
       <r>   11.6695    0.0000 </r>
      </set>
      <set comment="kpoint 23">
       <r>  -18.0047    1.0000 </r>
       <r>  -17.6704    1.0000 </r>
       <r>  -16.3535    1.0000 </r>
       <r>  -16.2087    1.0000 </r>
       <r>  -16.1799    1.0000 </r>
       <r>  -16.1424    1.0000 </r>
       <r>   -8.0285    1.0000 </r>
       <r>   -5.6345    1.0000 </r>
       <r>   -5.0464    1.0000 </r>
       <r>   -4.4283    1.0000 </r>
       <r>   -4.3430    1.0000 </r>
       <r>   -3.6760    1.0000 </r>
       <r>   -1.9167    1.0000 </r>
       <r>   -1.6388    1.0000 </r>
       <r>   -1.4899    1.0000 </r>
       <r>   -1.1473    1.0000 </r>
       <r>   -0.9735    1.0000 </r>
       <r>   -0.5658    1.0000 </r>
       <r>   -0.4490    1.0000 </r>
       <r>   -0.3442    1.0000 </r>
       <r>   -0.0159    1.0000 </r>
       <r>    0.6536    1.0000 </r>
       <r>    0.8182    1.0000 </r>
       <r>    1.0240    1.0000 </r>
       <r>    8.7505    0.0000 </r>
       <r>    9.8416    0.0000 </r>
       <r>   10.3322    0.0000 </r>
       <r>   10.6869    0.0000 </r>
       <r>   11.2042    0.0000 </r>
       <r>   11.6587    0.0000 </r>
      </set>
      <set comment="kpoint 24">
       <r>  -17.9082    1.0000 </r>
       <r>  -17.5802    1.0000 </r>
       <r>  -16.5700    1.0000 </r>
       <r>  -16.2365    1.0000 </r>
       <r>  -16.1902    1.0000 </r>
       <r>  -16.1643    1.0000 </r>
       <r>   -7.6794    1.0000 </r>
       <r>   -5.8244    1.0000 </r>
       <r>   -5.2269    1.0000 </r>
       <r>   -4.3113    1.0000 </r>
       <r>   -4.1508    1.0000 </r>
       <r>   -3.7686    1.0000 </r>
       <r>   -2.0597    1.0000 </r>
       <r>   -1.8390    1.0000 </r>
       <r>   -1.3861    1.0000 </r>
       <r>   -1.2431    1.0000 </r>
       <r>   -0.9342    1.0000 </r>
       <r>   -0.4956    1.0000 </r>
       <r>   -0.3540    1.0000 </r>
       <r>   -0.1447    1.0000 </r>
       <r>    0.0896    1.0000 </r>
       <r>    0.4585    1.0000 </r>
       <r>    0.7448    1.0000 </r>
       <r>    0.9100    1.0000 </r>
       <r>    9.2331    0.0000 </r>
       <r>   10.0954    0.0000 </r>
       <r>   10.5317    0.0000 </r>
       <r>   10.9171    0.0000 </r>
       <r>   11.3001    0.0000 </r>
       <r>   11.6760    0.0000 </r>
      </set>
      <set comment="kpoint 25">
       <r>  -17.8125    1.0000 </r>
       <r>  -17.3977    1.0000 </r>
       <r>  -16.8729    1.0000 </r>
       <r>  -16.2670    1.0000 </r>
       <r>  -16.2050    1.0000 </r>
       <r>  -16.1803    1.0000 </r>
       <r>   -7.1809    1.0000 </r>
       <r>   -6.1605    1.0000 </r>
       <r>   -5.3714    1.0000 </r>
       <r>   -4.2303    1.0000 </r>
       <r>   -3.9638    1.0000 </r>
       <r>   -3.8822    1.0000 </r>
       <r>   -2.1518    1.0000 </r>
       <r>   -1.9545    1.0000 </r>
       <r>   -1.4596    1.0000 </r>
       <r>   -1.0934    1.0000 </r>
       <r>   -0.8779    1.0000 </r>
       <r>   -0.6355    1.0000 </r>
       <r>   -0.1521    1.0000 </r>
       <r>   -0.0332    1.0000 </r>
       <r>    0.1943    1.0000 </r>
       <r>    0.3705    1.0000 </r>
       <r>    0.5601    1.0000 </r>
       <r>    0.7895    1.0000 </r>
       <r>    9.9235    0.0000 </r>
       <r>   10.4313    0.0000 </r>
       <r>   10.7281    0.0000 </r>
       <r>   11.1376    0.0000 </r>
       <r>   11.4722    0.0000 </r>
       <r>   11.6813    0.0000 </r>
      </set>
      <set comment="kpoint 26">
       <r>  -17.8147    1.0000 </r>
       <r>  -17.3906    1.0000 </r>
       <r>  -16.8807    1.0000 </r>
       <r>  -16.2641    1.0000 </r>
       <r>  -16.2040    1.0000 </r>
       <r>  -16.1811    1.0000 </r>
       <r>   -7.1816    1.0000 </r>
       <r>   -6.1621    1.0000 </r>
       <r>   -5.3692    1.0000 </r>
       <r>   -4.2392    1.0000 </r>
       <r>   -3.9666    1.0000 </r>
       <r>   -3.8650    1.0000 </r>
       <r>   -2.1458    1.0000 </r>
       <r>   -1.9601    1.0000 </r>
       <r>   -1.4668    1.0000 </r>
       <r>   -1.0914    1.0000 </r>
       <r>   -0.9252    1.0000 </r>
       <r>   -0.5869    1.0000 </r>
       <r>   -0.1577    1.0000 </r>
       <r>    0.0256    1.0000 </r>
       <r>    0.1887    1.0000 </r>
       <r>    0.2980    1.0000 </r>
       <r>    0.5389    1.0000 </r>
       <r>    0.8333    1.0000 </r>
       <r>    9.8665    0.0000 </r>
       <r>   10.5321    0.0000 </r>
       <r>   10.7993    0.0000 </r>
       <r>   11.1265    0.0000 </r>
       <r>   11.3100    0.0000 </r>
       <r>   11.6890    0.0000 </r>
      </set>
      <set comment="kpoint 27">
       <r>  -17.7790    1.0000 </r>
       <r>  -17.2616    1.0000 </r>
       <r>  -17.0420    1.0000 </r>
       <r>  -16.2750    1.0000 </r>
       <r>  -16.2173    1.0000 </r>
       <r>  -16.1896    1.0000 </r>
       <r>   -6.8666    1.0000 </r>
       <r>   -6.3820    1.0000 </r>
       <r>   -5.4798    1.0000 </r>
       <r>   -4.1805    1.0000 </r>
       <r>   -3.9236    1.0000 </r>
       <r>   -3.9228    1.0000 </r>
       <r>   -2.1840    1.0000 </r>
       <r>   -1.7436    1.0000 </r>
       <r>   -1.7281    1.0000 </r>
       <r>   -0.8851    1.0000 </r>
       <r>   -0.8615    1.0000 </r>
       <r>   -0.8548    1.0000 </r>
       <r>    0.0175    1.0000 </r>
       <r>    0.0338    1.0000 </r>
       <r>    0.1996    1.0000 </r>
       <r>    0.4227    1.0000 </r>
       <r>    0.4445    1.0000 </r>
       <r>    0.6514    1.0000 </r>
       <r>   10.1483    0.0000 </r>
       <r>   10.7031    0.0000 </r>
       <r>   10.9273    0.0000 </r>
       <r>   11.2112    0.0000 </r>
       <r>   11.3183    0.0000 </r>
       <r>   11.3876    0.0000 </r>
      </set>
     </set>
    </set>
   </array>
  </eigenvalues>
  <separator name="orbital magnetization" >
   <v name="MAGDIPOLOUT">      0.00000000      0.00000000      0.00000000</v>
  </separator>
  <dos>
   <i name="efermi">      1.12490050 </i>
   <total>
    <array>
     <dimension dim="1">gridpoints</dimension>
     <dimension dim="2">spin</dimension>
     <field>energy</field>
     <field>total</field>
     <field>integrated</field>
     <set>
      <set comment="spin 1">
       <r>   -20.3709     0.0000     0.0000 </r>
       <r>   -20.2548     0.0000     0.0000 </r>
       <r>   -20.1388     0.0000     0.0000 </r>
       <r>   -20.0228     0.0000     0.0000 </r>
       <r>   -19.9067     0.0000     0.0000 </r>
       <r>   -19.7907     0.0000     0.0000 </r>
       <r>   -19.6747     0.0000     0.0000 </r>
       <r>   -19.5586     0.0000     0.0000 </r>
       <r>   -19.4426     0.0000     0.0000 </r>
       <r>   -19.3266     0.0000     0.0000 </r>
       <r>   -19.2105     0.0000     0.0000 </r>
       <r>   -19.0945     0.0000     0.0000 </r>
       <r>   -18.9784     0.0000     0.0000 </r>
       <r>   -18.8624     0.0000     0.0000 </r>
       <r>   -18.7464     0.0000     0.0000 </r>
       <r>   -18.6303     0.0000     0.0000 </r>
       <r>   -18.5143     0.0000     0.0000 </r>
       <r>   -18.3983     0.0000     0.0000 </r>
       <r>   -18.2822     0.9666     0.0305 </r>
       <r>   -18.1662     1.6800     0.1832 </r>
       <r>   -18.0501     2.9297     0.4369 </r>
       <r>   -17.9341     4.8143     0.9004 </r>
       <r>   -17.8181     9.3723     1.7443 </r>
       <r>   -17.7020     0.6166     1.9996 </r>
       <r>   -17.5860     1.5765     2.1392 </r>
       <r>   -17.4700     3.4041     2.4032 </r>
       <r>   -17.3539     6.8069     3.3457 </r>
       <r>   -17.2379     1.9169     3.7525 </r>
       <r>   -17.1219     0.8461     3.9029 </r>
       <r>   -17.0058     0.6280     3.9770 </r>
       <r>   -16.8898     3.8980     4.1223 </r>
       <r>   -16.7737     6.8617     5.0645 </r>
       <r>   -16.6577     2.5413     5.5203 </r>
       <r>   -16.5417     1.4692     5.7490 </r>
       <r>   -16.4256     0.9700     5.8920 </r>
       <r>   -16.3096     0.5159     5.9794 </r>
       <r>   -16.1936    41.2200     9.3768 </r>
       <r>   -16.0775     0.0000    12.0000 </r>
       <r>   -15.9615     0.0000    12.0000 </r>
       <r>   -15.8455     0.0000    12.0000 </r>
       <r>   -15.7294     0.0000    12.0000 </r>
       <r>   -15.6134     0.0000    12.0000 </r>
       <r>   -15.4973     0.0000    12.0000 </r>
       <r>   -15.3813     0.0000    12.0000 </r>
       <r>   -15.2653     0.0000    12.0000 </r>
       <r>   -15.1492     0.0000    12.0000 </r>
       <r>   -15.0332     0.0000    12.0000 </r>
       <r>   -14.9172     0.0000    12.0000 </r>
       <r>   -14.8011     0.0000    12.0000 </r>
       <r>   -14.6851     0.0000    12.0000 </r>
       <r>   -14.5691     0.0000    12.0000 </r>
       <r>   -14.4530     0.0000    12.0000 </r>
       <r>   -14.3370     0.0000    12.0000 </r>
       <r>   -14.2209     0.0000    12.0000 </r>
       <r>   -14.1049     0.0000    12.0000 </r>
       <r>   -13.9889     0.0000    12.0000 </r>
       <r>   -13.8728     0.0000    12.0000 </r>
       <r>   -13.7568     0.0000    12.0000 </r>
       <r>   -13.6408     0.0000    12.0000 </r>
       <r>   -13.5247     0.0000    12.0000 </r>
       <r>   -13.4087     0.0000    12.0000 </r>
       <r>   -13.2926     0.0000    12.0000 </r>
       <r>   -13.1766     0.0000    12.0000 </r>
       <r>   -13.0606     0.0000    12.0000 </r>
       <r>   -12.9445     0.0000    12.0000 </r>
       <r>   -12.8285     0.0000    12.0000 </r>
       <r>   -12.7125     0.0000    12.0000 </r>
       <r>   -12.5964     0.0000    12.0000 </r>
       <r>   -12.4804     0.0000    12.0000 </r>
       <r>   -12.3644     0.0000    12.0000 </r>
       <r>   -12.2483     0.0000    12.0000 </r>
       <r>   -12.1323     0.0000    12.0000 </r>
       <r>   -12.0162     0.0000    12.0000 </r>
       <r>   -11.9002     0.0000    12.0000 </r>
       <r>   -11.7842     0.0000    12.0000 </r>
       <r>   -11.6681     0.0000    12.0000 </r>
       <r>   -11.5521     0.0000    12.0000 </r>
       <r>   -11.4361     0.0000    12.0000 </r>
       <r>   -11.3200     0.0000    12.0000 </r>
       <r>   -11.2040     0.0000    12.0000 </r>
       <r>   -11.0880     0.0000    12.0000 </r>
       <r>   -10.9719     0.0000    12.0000 </r>
       <r>   -10.8559     0.0000    12.0000 </r>
       <r>   -10.7398     0.0000    12.0000 </r>
       <r>   -10.6238     0.0000    12.0000 </r>
       <r>   -10.5078     0.0000    12.0000 </r>
       <r>   -10.3917     0.0000    12.0000 </r>
       <r>   -10.2757     0.0000    12.0000 </r>
       <r>   -10.1597     0.0000    12.0000 </r>
       <r>   -10.0436     0.0000    12.0000 </r>
       <r>    -9.9276     0.0000    12.0000 </r>
       <r>    -9.8115     0.0000    12.0000 </r>
       <r>    -9.6955     0.0000    12.0000 </r>
       <r>    -9.5795     0.0000    12.0000 </r>
       <r>    -9.4634     0.0000    12.0000 </r>
       <r>    -9.3474     0.0000    12.0000 </r>
       <r>    -9.2314     0.0000    12.0000 </r>
       <r>    -9.1153     0.0000    12.0000 </r>
       <r>    -8.9993     0.0000    12.0000 </r>
       <r>    -8.8833     0.0000    12.0000 </r>
       <r>    -8.7672     0.0000    12.0000 </r>
       <r>    -8.6512     0.0000    12.0000 </r>
       <r>    -8.5351     0.0000    12.0000 </r>
       <r>    -8.4191     0.0000    12.0000 </r>
       <r>    -8.3031     0.0000    12.0000 </r>
       <r>    -8.1870     0.0760    12.0015 </r>
       <r>    -8.0710     0.3798    12.0267 </r>
       <r>    -7.9550     0.5019    12.0782 </r>
       <r>    -7.8389     0.7186    12.1488 </r>
       <r>    -7.7229     0.9101    12.2439 </r>
       <r>    -7.6069     1.2887    12.3699 </r>
       <r>    -7.4908     1.7987    12.5467 </r>
       <r>    -7.3748     3.7052    12.8355 </r>
       <r>    -7.2587     3.9281    13.6297 </r>
       <r>    -7.1427     0.8137    13.9083 </r>
       <r>    -7.0267     0.4256    13.9779 </r>
       <r>    -6.9106     0.2329    14.0147 </r>
       <r>    -6.7946     0.2834    14.0418 </r>
       <r>    -6.6786     0.4335    14.0831 </r>
       <r>    -6.5625     0.6876    14.1461 </r>
       <r>    -6.4465     1.1667    14.2514 </r>
       <r>    -6.3305     1.9236    14.4289 </r>
       <r>    -6.2144     5.8733    14.8725 </r>
       <r>    -6.0984     2.8429    15.4130 </r>
       <r>    -5.9823     1.5737    15.6624 </r>
       <r>    -5.8663     0.9843    15.8055 </r>
       <r>    -5.7503     0.6650    15.9003 </r>
       <r>    -5.6342     0.5083    15.9634 </r>
       <r>    -5.5182     0.0730    16.0030 </r>
       <r>    -5.4022     1.7008    16.0860 </r>
       <r>    -5.2861     3.6126    16.3944 </r>
       <r>    -5.1701     2.8807    16.7732 </r>
       <r>    -5.0540     2.8912    17.1094 </r>
       <r>    -4.9380     2.2202    17.4114 </r>
       <r>    -4.8220     1.5368    17.6235 </r>
       <r>    -4.7059     1.1231    17.7766 </r>
       <r>    -4.5899     0.7802    17.8870 </r>
       <r>    -4.4739     1.1739    17.9758 </r>
       <r>    -4.3578    20.6410    18.5389 </r>
       <r>    -4.2418     8.8526    20.1542 </r>
       <r>    -4.1258     5.9868    20.9660 </r>
       <r>    -4.0097     4.9189    21.6948 </r>
       <r>    -3.8937     3.5707    22.1658 </r>
       <r>    -3.7776     7.7596    23.0479 </r>
       <r>    -3.6616     4.0461    23.6929 </r>
       <r>    -3.5456     0.7812    23.9777 </r>
       <r>    -3.4295     0.0000    24.0000 </r>
       <r>    -3.3135     0.0000    24.0000 </r>
       <r>    -3.1975     0.0000    24.0000 </r>
       <r>    -3.0814     0.0000    24.0000 </r>
       <r>    -2.9654     0.0000    24.0000 </r>
       <r>    -2.8494     0.0000    24.0000 </r>
       <r>    -2.7333     0.0000    24.0000 </r>
       <r>    -2.6173     0.0000    24.0000 </r>
       <r>    -2.5012     0.0000    24.0000 </r>
       <r>    -2.3852     0.0000    24.0000 </r>
       <r>    -2.2692     0.0000    24.0000 </r>
       <r>    -2.1531     4.3075    24.0626 </r>
       <r>    -2.0371    12.1600    25.3391 </r>
       <r>    -1.9211     5.7760    26.2112 </r>
       <r>    -1.8050     9.2224    26.9209 </r>
       <r>    -1.6890     6.2256    27.7797 </r>
       <r>    -1.5730     7.5959    28.4703 </r>
       <r>    -1.4569     6.4531    29.5119 </r>
       <r>    -1.3409     0.9993    29.9997 </r>
       <r>    -1.2248     8.8283    30.2948 </r>
       <r>    -1.1088     6.3321    31.6434 </r>
       <r>    -0.9928     5.9464    32.0505 </r>
       <r>    -0.8767     7.3233    33.7469 </r>
       <r>    -0.7607     2.4492    33.9966 </r>
       <r>    -0.6447     5.8983    34.5617 </r>
       <r>    -0.5286    10.3255    35.4132 </r>
       <r>    -0.4126    10.0805    36.6860 </r>
       <r>    -0.2965     4.7693    37.6118 </r>
       <r>    -0.1805    10.5852    38.2179 </r>
       <r>    -0.0645    10.6630    39.5208 </r>
       <r>     0.0516     6.1304    40.2465 </r>
       <r>     0.1676    12.5982    41.7424 </r>
       <r>     0.2836     2.9421    42.0534 </r>
       <r>     0.3997    12.3000    43.1876 </r>
       <r>     0.5157     4.5779    43.8498 </r>
       <r>     0.6317     4.7174    44.3888 </r>
       <r>     0.7478     9.6210    45.2067 </r>
       <r>     0.8638     5.0735    46.2052 </r>
       <r>     0.9799    11.8097    47.0581 </r>
       <r>     1.0959     0.0893    47.9998 </r>
       <r>     1.2119     0.0000    48.0000 </r>
       <r>     1.3280     0.0000    48.0000 </r>
       <r>     1.4440     0.0000    48.0000 </r>
       <r>     1.5600     0.0000    48.0000 </r>
       <r>     1.6761     0.0000    48.0000 </r>
       <r>     1.7921     0.0000    48.0000 </r>
       <r>     1.9081     0.0000    48.0000 </r>
       <r>     2.0242     0.0000    48.0000 </r>
       <r>     2.1402     0.0000    48.0000 </r>
       <r>     2.2563     0.0000    48.0000 </r>
       <r>     2.3723     0.0000    48.0000 </r>
       <r>     2.4883     0.0000    48.0000 </r>
       <r>     2.6044     0.0000    48.0000 </r>
       <r>     2.7204     0.0000    48.0000 </r>
       <r>     2.8364     0.0000    48.0000 </r>
       <r>     2.9525     0.0000    48.0000 </r>
       <r>     3.0685     0.0000    48.0000 </r>
       <r>     3.1846     0.0000    48.0000 </r>
       <r>     3.3006     0.0000    48.0000 </r>
       <r>     3.4166     0.0000    48.0000 </r>
       <r>     3.5327     0.0000    48.0000 </r>
       <r>     3.6487     0.0000    48.0000 </r>
       <r>     3.7647     0.0000    48.0000 </r>
       <r>     3.8808     0.0000    48.0000 </r>
       <r>     3.9968     0.0000    48.0000 </r>
       <r>     4.1128     0.0000    48.0000 </r>
       <r>     4.2289     0.0000    48.0000 </r>
       <r>     4.3449     0.0000    48.0000 </r>
       <r>     4.4610     0.0000    48.0000 </r>
       <r>     4.5770     0.0000    48.0000 </r>
       <r>     4.6930     0.0000    48.0000 </r>
       <r>     4.8091     0.0000    48.0000 </r>
       <r>     4.9251     0.0000    48.0000 </r>
       <r>     5.0411     0.0000    48.0000 </r>
       <r>     5.1572     0.0000    48.0000 </r>
       <r>     5.2732     0.0000    48.0000 </r>
       <r>     5.3892     0.0000    48.0000 </r>
       <r>     5.5053     0.0000    48.0000 </r>
       <r>     5.6213     0.0000    48.0000 </r>
       <r>     5.7374     0.0000    48.0000 </r>
       <r>     5.8534     0.0000    48.0000 </r>
       <r>     5.9694     0.0000    48.0000 </r>
       <r>     6.0855     0.0000    48.0000 </r>
       <r>     6.2015     0.0000    48.0000 </r>
       <r>     6.3175     0.0000    48.0000 </r>
       <r>     6.4336     0.0000    48.0000 </r>
       <r>     6.5496     0.0000    48.0000 </r>
       <r>     6.6656     0.0000    48.0000 </r>
       <r>     6.7817     0.0000    48.0000 </r>
       <r>     6.8977     0.0000    48.0000 </r>
       <r>     7.0138     0.0000    48.0000 </r>
       <r>     7.1298     0.0001    48.0000 </r>
       <r>     7.2458     0.0155    48.0006 </r>
       <r>     7.3619     0.0580    48.0046 </r>
       <r>     7.4779     0.1274    48.0151 </r>
       <r>     7.5939     0.2113    48.0352 </r>
       <r>     7.7100     0.2561    48.0625 </r>
       <r>     7.8260     0.2827    48.0940 </r>
       <r>     7.9421     0.3107    48.1280 </r>
       <r>     8.0581     0.3574    48.1667 </r>
       <r>     8.1741     0.4068    48.2110 </r>
       <r>     8.2902     0.4588    48.2612 </r>
       <r>     8.4062     0.5130    48.3176 </r>
       <r>     8.5222     0.5916    48.3806 </r>
       <r>     8.6383     0.7474    48.4584 </r>
       <r>     8.7543     0.8760    48.5539 </r>
       <r>     8.8703     0.8481    48.6497 </r>
       <r>     8.9864     0.9104    48.7517 </r>
       <r>     9.1024     0.9748    48.8611 </r>
       <r>     9.2185     1.0412    48.9780 </r>
       <r>     9.3345     1.4507    49.1156 </r>
       <r>     9.4505     1.5137    49.2914 </r>
       <r>     9.5666     1.2622    49.4489 </r>
       <r>     9.6826     1.3004    49.5940 </r>
       <r>     9.7986     1.5220    49.7594 </r>
       <r>     9.9147     2.1124    49.9512 </r>
       <r>    10.0307     1.2104    50.1411 </r>
       <r>    10.1467     1.3153    50.2742 </r>
       <r>    10.2628     3.7097    50.5443 </r>
       <r>    10.3788    12.1888    51.4374 </r>
       <r>    10.4949     4.0011    52.1810 </r>
       <r>    10.6109     7.0772    52.7642 </r>
       <r>    10.7269     7.1156    53.6702 </r>
       <r>    10.8430     3.5010    54.3375 </r>
       <r>    10.9590     3.0856    54.6523 </r>
       <r>    11.0750     7.8215    55.2016 </r>
       <r>    11.1911     3.2424    55.9543 </r>
       <r>    11.3071     5.9453    56.5228 </r>
       <r>    11.4231     7.2162    57.3069 </r>
       <r>    11.5392     2.8560    57.9674 </r>
       <r>    11.6552     2.0421    58.1709 </r>
       <r>    11.7713     4.7977    59.3376 </r>
       <r>    11.8873     1.8215    59.6792 </r>
       <r>    12.0033     0.8397    59.8246 </r>
       <r>    12.1194     0.5340    59.8995 </r>
       <r>    12.2354     0.3942    59.9529 </r>
       <r>    12.3514     0.2192    59.9897 </r>
       <r>    12.4675     0.0000    60.0000 </r>
       <r>    12.5835     0.0000    60.0000 </r>
       <r>    12.6996     0.0000    60.0000 </r>
       <r>    12.8156     0.0000    60.0000 </r>
       <r>    12.9316     0.0000    60.0000 </r>
       <r>    13.0477     0.0000    60.0000 </r>
       <r>    13.1637     0.0000    60.0000 </r>
       <r>    13.2797     0.0000    60.0000 </r>
       <r>    13.3958     0.0000    60.0000 </r>
       <r>    13.5118     0.0000    60.0000 </r>
       <r>    13.6278     0.0000    60.0000 </r>
       <r>    13.7439     0.0000    60.0000 </r>
       <r>    13.8599     0.0000    60.0000 </r>
       <r>    13.9760     0.0000    60.0000 </r>
       <r>    14.0920     0.0000    60.0000 </r>
       <r>    14.2080     0.0000    60.0000 </r>
       <r>    14.3241     0.0000    60.0000 </r>
       <r>    14.4401     0.0000    60.0000 </r>
      </set>
     </set>
    </array>
   </total>
  </dos>
 </calculation>
 <structure name="finalpos" >
  <crystal>
   <varray name="basis" >
    <v>       4.91380000       0.00000000       0.00000000 </v>
    <v>      -2.45690000       4.25547563       0.00000000 </v>
    <v>       0.00000000       0.00000000       5.40520000 </v>
   </varray>
   <i name="volume">    113.02573808 </i>
   <varray name="rec_basis" >
    <v>       0.20350849       0.11749568       0.00000000 </v>
    <v>       0.00000000       0.23499136       0.00000000 </v>
    <v>       0.00000000       0.00000000       0.18500703 </v>
   </varray>
  </crystal>
  <varray name="positions" >
   <v>       0.46980000       0.00000000       0.66666667 </v>
   <v>       0.53020000       0.53020000       0.00000000 </v>
   <v>       0.00000000       0.46980000       0.33333333 </v>
   <v>       0.41450000       0.26620000       0.78560000 </v>
   <v>       0.58550000       0.85170000       0.88106667 </v>
   <v>       0.14830000       0.73380000       0.54773333 </v>
   <v>       0.26620000       0.41450000       0.21440000 </v>
   <v>       0.85170000       0.58550000       0.11893333 </v>
   <v>       0.73380000       0.14830000       0.45226667 </v>
  </varray>
 </structure>
</modeling>
