unknown system                          
   1.00000000000000     
     4.913800    0.000000    0.000000
    -2.456900    4.255476    0.000000
     0.000000    0.000000    5.405200
   Si   O 
     3     6
Direct
  0.469800  0.000000  0.666667
  0.530200  0.530200  0.000000
  0.000000  0.469800  0.333333
  0.414500  0.266200  0.785600
  0.585500  0.851700  0.881067
  0.148300  0.733800  0.547733
  0.266200  0.414500  0.214400
  0.851700  0.585500  0.118933
  0.733800  0.148300  0.452267
 
   64   64   72
  1.4751      1.4279      1.4138      1.4261      1.4604      1.5135      1.5826      1.6656      1.7615      1.8693    
  1.9882      2.1164      2.2508      2.3875      2.5219      2.6503      2.7706      2.8830      2.9891      3.0914    
  3.1946      3.3087      3.4511      3.6462      3.9223      4.3086      4.8343      5.5335      6.4508      7.6450    
  9.1857      11.143      13.573      16.508      19.946      23.845      28.109      32.579      37.018      41.110    
  44.492      46.810      47.788      47.296      45.379      42.253      38.248      33.738      29.073      24.535    
  20.325      16.567      13.326      10.615      8.4098      6.6574      5.2860      4.2215      3.3991      2.7695    
  2.2973      1.9556      1.7199      1.5669      1.4279      1.3802      1.3681      1.3849      1.4268      1.4914    
  1.5766      1.6807      1.8023      1.9403      2.0933      2.2590      2.4338      2.6122      2.7878      2.9543    
  3.1070      3.2439      3.3643      3.4686      3.5584      3.6393      3.7234      3.8303      3.9852      4.2168    
  4.5533      5.0230      5.6569      6.4939      7.5824      8.9769      10.728      12.870      15.412      18.327    
  21.547      24.961      28.407      31.670      34.500      36.637      37.859      38.020      37.092      35.166    
  32.436      29.155      25.586      21.971      18.499      15.311      12.492      10.082      8.0807      6.4591    
  5.1673      4.1489      3.3514      2.7333      2.2638      1.9197      1.6796      1.5223      1.4138      1.3680    
  1.3594      1.3816      1.4313      1.5069      1.6073      1.7313      1.8781      2.0463      2.2344      2.4397    
  2.6577      2.8821      3.1048      3.3172      3.5121      3.6839      3.8290      3.9454      4.0327      4.0939    
  4.1370      4.1763      4.2327      4.3323      4.5035      4.7741      5.1705      5.7202      6.4552      7.4134    
  8.6344      10.151      11.978      14.107      16.496      19.067      21.707      24.265      26.568      28.428    
  29.672      30.171      29.864      28.773      26.999      24.699      22.060      19.270      16.496      13.872    
  11.491      9.4095      7.6437      6.1828      4.9962      4.0444      3.2881      2.6946      2.2390      1.9015    
  1.6638      1.5073      1.4261      1.3849      1.3816      1.4103      1.4685      1.5554      1.6707      1.8143    
  1.9857      2.1842      2.4084      2.6550      2.9192      3.1936      3.4692      3.7357      3.9828      4.2013    
  4.3836      4.5243      4.6209      4.6747      4.6912      4.6808      4.6597      4.6502      4.6793      4.7755    
  4.9655      5.2738      5.7239      6.3411      7.1527      8.1843      9.4533      10.961      12.685      14.576    
  16.558      18.526      20.355      21.910      23.058      23.693      23.747      23.206      22.114      20.561    
  18.672      16.585      14.435      12.338      10.386      8.6365      7.1194      5.8373      4.7748      3.9066    
  3.2057      2.6487      2.2168      1.8943      1.6658      1.5151      1.4605      1.4269      1.4313      1.4685    
  1.5366      1.6354      1.7658      1.9285      2.1241      2.3525      2.6127      2.9016      3.2141      3.5425    
  3.8766      4.2049      4.5148      4.7931      5.0275      5.2080      5.3287      5.3887      5.3918      5.3459    
  5.2640      5.1649      5.0734      5.0175      5.0256      5.1231      5.3322      5.6723      6.1622      6.8194    
  7.6578      8.6819      9.8820      11.229      12.674      14.146      15.558      16.811      17.805      18.454    
  18.693      18.495      17.869      16.863      15.555      14.041      12.424      10.797      9.2391      7.8079    
  6.5367      5.4384      4.5094      3.7362      3.1023      2.5921      2.1930      1.8933      1.6806      1.5410    
  1.5138      1.4916      1.5069      1.5554      1.6354      1.7475      1.8935      2.0751      2.2942      2.5515    
  2.8467      3.1775      3.5392      3.9243      4.3223      4.7205      5.1041      5.4562      5.7595      5.9985    
  6.1621      6.2455      6.2496      6.1808      6.0506      5.8763      5.6810      5.4921      5.3386      5.2481    
  5.2445      5.3475      5.5727      5.9326      6.4364      7.0878      7.8820      8.8018      9.8158      10.878    
  11.928      12.897      13.712      14.302      14.613      14.612      14.290      13.669      12.795      11.730    
  10.547      9.3186      8.1088      6.9669      5.9267      5.0066      4.2118      3.5385      2.9785      2.5233    
  2.1649      1.8952      1.7045      1.5813      1.5830      1.5767      1.6072      1.6706      1.7657      1.8934    
  2.0562      2.2571      2.4988      2.7836      3.1123      3.4836      3.8939      4.3370      4.8029      5.2784    
  5.7465      6.1868      6.5770      6.8955      7.1245      7.2527      7.2764      7.1992      7.0321      6.7929    
  6.5052      6.1968      5.8973      5.6360      5.4396      5.3303      5.3252      5.4358      5.6691      6.0271    
  6.5061      7.0944      7.7703      8.5025      9.2502      9.9656      10.596      11.090      11.400      11.496    
  11.360      10.998      10.434      9.7059      8.8633      7.9583      7.0399      6.1491      5.3165      4.5622    
  3.8966      3.3228      2.8396      2.4438      2.1316      1.8976      1.7343      1.6326      1.6658      1.6804    
  1.7311      1.8141      1.9284      2.0751      2.2571      2.4782      2.7425      3.0537      3.4140      3.8239    
  4.2814      4.7820      5.3175      5.8752      6.4369      6.9791      7.4745      7.8946      8.2138      8.4124    
  8.4793      8.4135      8.2242      7.9305      7.5585      7.1385      6.7021      6.2811      5.9051      5.5995    
  5.3844      5.2735      5.2746      5.3896      5.6151      5.9415      6.3523      6.8241      7.3272      7.8274    
  8.2875      8.6693      8.9376      9.0639      9.0303      8.8321      8.4788      7.9925      7.4044      6.7501    
  6.0652      5.3824      4.7284      4.1225      3.5773      3.0995      2.6926      2.3579      2.0946      1.9000    
  1.7684      1.6929      1.7612      1.8016      1.8776      1.9856      2.1242      2.2942      2.4989      2.7426    
  3.0306      3.3679      3.7586      4.2051      4.7076      5.2639      5.8684      6.5099      7.1705      7.8250    
  8.4416      8.9849      9.4204      9.7183      9.8575      9.8293      9.6391      9.3059      8.8585      8.3316    
  7.7619      7.1856      6.6364      6.1435      5.7300      5.4130      5.2028      5.1031      5.1118      5.2208    
  5.4164      5.6794      5.9862      6.3098      6.6218      6.8942      7.1004      7.2174      7.2284      7.1244    
  6.9063      6.5848      6.1783      5.7100      5.2050      4.6880      4.1813      3.7028      3.2652      2.8769    
  2.5439      2.2699      2.0567      1.9034      1.8066      1.7610      1.8686      1.9395      2.0460      2.1844    
  2.3529      2.5516      2.7836      3.0537      3.3680      3.7326      4.1534      4.6350      5.1801      5.7893    
  6.4599      7.1837      7.9445      8.7169      9.4662      10.151      10.728      11.155      11.399      11.441    
  11.279      10.929      10.420      9.7930      9.0912      8.3587      7.6360      6.9578      6.3511      5.8357    
  5.4245      5.1242      4.9349      4.8509      4.8607      4.9478      5.0914      5.2682      5.4545      5.6273    
  5.7658      5.8519      5.8711      5.8135      5.6752      5.4595      5.1762      4.8400      4.4683      4.0792    
  3.6904      3.3172      2.9720      2.6636      2.3993      2.1840      2.0207      1.9099      1.8498      1.8373    
  1.9875      2.0930      2.2347      2.4089      2.6131      2.8468      3.1121      3.4139      3.7586      4.1535    
  4.6058      5.1218      5.7071      6.3655      7.0977      7.8995      8.7578      9.6489      10.537      11.377    
  12.115      12.699      13.082      13.231      13.133      12.797      12.250      11.535      10.705      9.8142    
  8.9129      8.0447      7.2428      6.5304      5.9227      5.4280      5.0494      4.7836      4.6220      4.5501    
  4.5492      4.5979      4.6740      4.7567      4.8279      4.8723      4.8777      4.8348      4.7377      4.5851    
  4.3811      4.1344      3.8572      3.5631      3.2657      2.9773      2.7087      2.4690      2.2658      2.1050    
  1.9898      1.9214      1.8993      1.9220      2.1162      2.2594      2.4405      2.6558      2.9019      3.1774    
  3.4833      3.8237      4.2050      4.6350      5.1219      5.6735      6.2976      7.0011      7.7892      8.6621    
  9.6117      10.618      11.645      12.646      13.561      14.325      14.878      15.171      15.177      14.893    
  14.340      13.561      12.614      11.566      10.481      9.4134      8.4072      7.4920      6.6862      5.9994    
  5.4353      4.9928      4.6653      4.4413      4.3040      4.2333      4.2073      4.2052      4.2095      4.2060    
  4.1836      4.1340      4.0508      3.9309      3.7742      3.5853      3.3721      3.1451      2.9152      2.6923    
  2.4854      2.3026      2.1517      2.0387      1.9674      1.9395      1.9551      2.0142      2.2511      2.4343    
  2.6584      2.9196      3.2138      3.5386      3.8935      4.2814      4.7076      5.1800      5.7072      6.2977    
  6.9609      7.7067      8.5443      9.4797      10.511      11.623      12.784      13.947      15.046      16.008    
  16.758      17.231      17.381      17.191      16.671      15.860      14.820      13.625      12.354      11.078    
  9.8543      8.7234      7.7108      6.8286      6.0803      5.4638      4.9735      4.5998      4.3283      4.1403    
  4.0144      3.9290      3.8653      3.8085      3.7480      3.6758      3.5862      3.4753      3.3414      3.1857    
  3.0128      2.8304      2.6471      2.4715      2.3110      2.1730      2.0642      1.9908      1.9568      1.9648    
  2.0160      2.1113      2.3875      2.6122      2.8821      3.1934      3.5417      3.9234      4.3366      4.7823    
  5.2644      5.7893      6.3654      7.0013      7.7069      8.4941      9.3763      10.365      11.466      12.670    
  13.954      15.272      16.555      17.724      18.692      19.375      19.710      19.659      19.217      18.415    
  17.312      15.991      14.542      13.053      11.599      10.237      9.0026      7.9149      6.9781      6.1883    
  5.5379      5.0167      4.6117      4.3059      4.0791      3.9089      3.7747      3.6599      3.5527      3.4454    
  3.3325      3.2106      3.0777      2.9335      2.7804      2.6233      2.4687      2.3236      2.1945      2.0877    
  2.0096      1.9657      1.9607      1.9979      2.0804      2.2100      2.5213      2.7874      3.1042      3.4686    
  3.8761      4.3219      4.8029      5.3181      5.8691      6.4600      7.0974      7.7891      8.5445      9.3764    
  10.301      11.336      12.493      13.774      15.163      16.619      18.077      19.453      20.648      21.566    
  22.120      22.252      21.938      21.192      20.069      18.653      17.044      15.348      13.658      12.051    
  10.578      9.2699      8.1341      7.1662      6.3555      5.6888      5.1518      4.7279      4.3980      4.1404    
  3.9326      3.7554      3.5948      3.4423      3.2924      3.1421      2.9899      2.8358      2.6813      2.5296    
  2.3857      2.2550      2.1424      2.0532      1.9930      1.9676      1.9819      2.0405      2.1480      2.3079    
  2.6494      2.9543      3.3171      3.7353      4.2050      4.7211      5.2790      5.8757      6.5103      7.1837    
  7.8990      8.6617      9.4798      10.365      11.336      12.412      13.616      14.955      16.425      17.994    
  19.605      21.173      22.592      23.754      24.554      24.909      24.771      24.137      23.047      21.582    
  19.847      17.962      16.041      14.183      12.460      10.915      9.5660      8.4096      7.4330      6.6195    
  5.9510      5.4093      4.9749      4.6266      4.3416      4.0980      3.8789      3.6733      3.4755      3.2823    
  3.0929      2.9082      2.7302      2.5618      2.4076      2.2723      2.1600      2.0740      2.0190      2.0005    
  2.0241      2.0955      2.2207      2.4046      2.7705      3.1083      3.5130      3.9828      4.5151      5.1051    
  5.7472      6.4369      7.1702      7.9442      8.7574      9.6112      10.511      11.466      12.493      13.615    
  14.857      16.238      17.762      19.412      21.140      22.867      24.488      25.886      26.940      27.546    
  27.630      27.163      26.168      24.713      22.905      20.871      18.744      16.645      14.668      12.876    
  11.299      9.9406      8.7882      7.8218      7.0196      6.3593      5.8192      5.3775      5.0110      4.6966    
  4.4138      4.1488      3.8941      3.6462      3.4046      3.1710      2.9484      2.7407      2.5527      2.3900    
  2.2572      2.1572      2.0929      2.0690      2.0913      2.1665      2.3012      2.5014      2.8840      3.2459    
  3.6853      4.2012      4.7928      5.4566      6.1872      6.9785      7.8240      8.7164      9.6489      10.617    
  11.623      12.671      13.775      14.955      16.237      17.647      19.200      20.891      22.688      24.524    
  26.303      27.905      29.200      30.064      30.399      30.150      29.314      27.942      26.132      24.013    
  21.730      19.423      17.208      15.170      13.357      11.785      10.446      9.3190      8.3782      7.5974    
  6.9506      6.4134      5.9616      5.5707      5.2180      4.8866      4.5663      4.2527      3.9450      3.6458    
  3.3595      3.0913      2.8467      2.6325      2.4549      2.3185      2.2261      2.1813      2.1898      2.2581    
  2.3929      2.6001      2.9905      3.3657      3.8295      4.3827      5.0262      5.7590      6.5771      7.4738    
  8.4404      9.4659      10.538      11.646      12.784      13.955      15.163      16.425      17.762      19.200    
  20.762      22.455      24.265      26.146      28.017      29.765      31.260      32.365      32.961      32.964    
  32.343      31.125      29.394      27.274      24.913      22.462      20.055      17.796      15.756      13.968    
  12.436      11.141      10.058      9.1558      8.4031      7.7710      7.2321      6.7599      6.3300      5.9227    
  5.5255      5.1328      4.7437      4.3612      3.9913      3.6413      3.3181      3.0291      2.7821      2.5841    
  2.4398      2.3534      2.3305      2.3772      2.4997      2.7027      3.0923      3.4684      3.9444      4.5228    
  5.2066      5.9980      6.8959      7.8947      8.9845      10.151      11.378      12.647      13.947      15.271    
  16.619      17.995      19.412      20.891      22.455      24.121      25.892      27.746      29.627      31.443    
  33.071      34.372      35.210      35.474      35.105      34.103      32.530      30.499      28.155      25.651    
  23.132      20.715      18.488      16.505      14.786      13.326      12.102      11.081      10.227      9.5057    
  8.8836      8.3298      7.8170      7.3232      6.8341      6.3438      5.8521      5.3632      4.8851      4.4276    
  4.0003      3.6118      3.2708      2.9856      2.7633      2.6101      2.5324      2.5369      2.6293      2.8135    
  3.1946      3.5570      4.0309      4.6198      5.3285      6.1627      7.1255      8.2146      9.4207      10.728    
  12.115      13.561      15.046      16.554      18.077      19.605      21.140      22.688      24.265      25.892    
  27.586      29.349      31.157      32.946      34.613      36.027      37.049      37.554      37.454      36.717    
  35.374      33.518      31.287      28.836      26.309      23.831      21.498      19.379      17.514      15.912    
  14.560      13.432      12.489      11.692      10.999      10.372      9.7771      9.1894      8.5926      7.9811    
  7.3575      6.7295      6.1084      5.5079      4.9416      4.4212      3.9567      3.5568      3.2294      2.9819    
  2.8220      2.7580      2.7966      2.9416      3.3083      3.6378      4.0926      4.6748      5.3901      6.2470    
  7.2537      8.4129      9.7184      11.154      12.699      14.325      16.007      17.724      19.452      21.173    
  22.867      24.524      26.146      27.747      29.350      30.978      32.636      34.280      35.840      37.221    
  38.305      38.971      39.115      38.676      37.651      36.096      34.115      31.841      29.423      27.002    
  24.679      22.529      20.599      18.916      17.480      16.275      15.269      14.419      13.677      12.996    
  12.331      11.652      10.937      10.181      9.3905      8.5799      7.7674      6.9733      6.2178      5.5183    
  4.8881      4.3372      3.8728      3.5012      3.2299      3.0679      3.0240      3.1036      3.4508      3.7227    
  4.1366      4.6923      5.3938      6.2509      7.2762      8.4785      9.8568      11.398      13.081      14.877    
  16.757      18.691      20.648      22.593      24.489      26.303      28.016      29.627      31.157      32.636    
  34.064      35.429      36.710      37.866      38.829      39.506      39.797      39.626      38.958      37.812    
  36.250      34.365      32.264      30.063      27.887      25.839      23.972      22.316      20.882      19.665    
  18.644      17.781      17.024      16.319      15.611      14.855      14.024      13.109      12.119      11.077    
  10.013      8.9581      7.9437      6.9971      6.1389      5.3828      4.7362      4.2032      3.7878      3.4969    
  3.3393      3.3228      3.6462      3.8303      4.1766      4.6819      5.3473      6.1810      7.1976      8.4115    
  9.8284      11.441      13.231      15.171      17.231      19.376      21.566      23.755      25.887      27.905    
  29.765      31.443      32.946      34.280      35.429      36.405      37.239      37.959      38.568      39.033    
  39.291      39.273      38.926      38.236      37.222      35.927      34.404      32.715      30.937      29.167    
  27.517      26.036      24.736      23.617      22.667      21.856      21.139      20.457      19.745      18.946    
  18.017      16.943      15.732      14.415      13.035      11.640      10.279      8.9939      7.8198      6.7788    
  5.8825      5.1337      4.5315      4.0761      3.7721      3.6270      3.9224      3.9857      4.2331      4.6601    
  5.2642      6.0498      7.0302      8.2225      9.6391      11.280      13.134      15.177      17.382      19.711    
  22.121      24.554      26.940      29.200      31.260      33.071      34.614      35.841      36.710      37.238    
  37.496      37.577      37.576      37.550      37.513      37.438      37.282      37.011      36.605      36.053    
  35.344      34.471      33.440      32.288      31.090      29.957      28.957      28.087      27.337      26.684    
  26.091      25.504      24.851      24.062      23.077      21.865      20.428      18.802      17.046      15.229    
  13.420      11.687      10.084      8.6501      7.4072      6.3618      5.5094      4.8416      4.3532      4.0455    
  4.3085      4.2173      4.3327      4.6499      5.1642      5.8754      6.7919      7.9301      9.3070      10.931    
  12.798      14.893      17.191      19.659      22.253      24.908      27.545      30.063      32.365      34.372    
  36.028      37.221      37.866      37.958      37.577      36.870      36.019      35.200      34.541      34.106    
  33.904      33.910      34.078      34.347      34.636      34.852      34.913      34.766      34.415      33.926    
  33.414      32.970      32.586      32.240      31.901      31.519      31.024      30.332      29.362      28.061    
  26.415      24.462      22.275      19.951      17.589      15.285      13.122      11.162      9.4453      7.9905    
  6.7950      5.8436      5.1188      4.6086      4.8340      4.5536      4.5039      4.6790      5.0725      5.6805    
  6.5055      7.5594      8.8599      10.422      12.250      14.339      16.670      19.217      21.938      24.771    
  27.629      30.399      32.961      35.210      37.049      38.305      38.830      38.568      37.575      36.019    
  34.153      32.271      30.646      29.483      28.894      28.911      29.497      30.557      31.939      33.457    
  34.914      36.146      37.055      37.626      37.933      38.110      38.275      38.419      38.510      38.500    
  38.317      37.861      37.028      35.731      33.929      31.652      28.987      26.065      23.030      20.017    
  17.144      14.505      12.165      10.158      8.4942      7.1575      6.1197      5.3522      5.5332      5.0229    
  4.7745      4.7755      5.0169      5.4919      6.1977      7.1398      8.3323      9.7929      11.534      13.559    
  15.859      18.414      21.193      24.137      27.163      30.151      32.965      35.475      37.554      38.970    
  39.506      39.033      37.550      35.200      32.271      29.154      26.276      24.012      22.635      22.288    
  22.996      24.666      27.103      30.024      33.105      36.038      38.590      40.634      42.169      43.302    
  44.209      45.035      45.766      46.350      46.701      46.698      46.199      45.070      43.227      40.672    
  37.502      33.888      30.034      26.142      22.382      18.887      15.750      13.027      10.742      8.8865    
  7.4289      6.3250      6.4507      5.6566      5.1706      4.9659      5.0254      5.3384      5.8980      6.7031    
  7.7618      9.0898      10.704      12.613      14.819      17.313      20.070      23.048      26.168      29.315    
  32.344      35.106      37.454      39.114      39.796      39.291      37.513      34.541      30.647      26.276    
  21.985      18.332      15.780      14.640      15.053      16.991      20.260      24.515      29.307      34.164    
  38.674      42.560      45.711      48.178      50.139      51.832      53.415      54.844      56.014      56.763    
  56.893      56.200      54.530      51.831      48.186      43.803      38.969      33.984      29.107      24.533    
  20.394      16.766      13.687      11.155      9.1418      7.5941      7.6451      6.4935      5.7200      5.2741    
  5.1233      5.2479      5.6361      6.2816      7.1852      8.3571      9.8128      11.567      13.626      15.992    
  18.654      21.582      24.713      27.942      31.125      34.104      36.716      38.675      39.625      39.273    
  37.438      34.106      29.482      24.013      18.332      13.158      9.1527      6.8243      6.4803      8.2154    
  11.905      17.206      23.585      30.413      37.073      43.086      48.182      52.322      55.667      58.495    
  61.106      63.618      65.912      67.773      68.920      69.051      67.903      65.328      61.355      56.208    
  50.258      43.941      37.657      31.713      26.308      21.548      17.476      14.092      11.367      9.2432    
  9.1859      7.5822      6.4549      5.7241      5.3325      5.2445      5.4393      5.9050      6.6362      7.6352    
  8.9125      10.482      12.356      14.543      17.045      19.846      22.904      26.131      29.393      32.530    
  35.374      37.651      38.958      38.927      37.283      33.904      28.893      22.635      15.780      9.1527    
  3.5904     -.19663     -1.7091     -.68650      2.8791      8.7242      16.316      24.917      33.716      41.995    
  49.266      55.347      60.347      64.575      68.414      72.175      75.852      79.182      81.784      83.222    
  83.085      81.073      77.103      71.356      64.268      56.424      48.422      40.753      33.742      27.556    
  22.252      17.818      14.210      11.362      11.143      8.9769      7.4132      6.3411      5.6727      5.3476    
  5.3300      5.5992      6.1435      6.9578      8.0450      9.4146      11.079      13.053      15.346      17.960    
  20.870      24.013      27.274      30.499      33.518      36.097      37.812      38.237      37.012      33.910    
  28.911      22.288      14.640      6.8241     -.19704     -5.5335     -8.4924     -8.6286     -5.7622     -.74391E-02
  8.1956      18.098      28.756      39.216      48.734      56.915      63.756      69.566      74.812      79.929    
  85.132      90.197      94.648      97.899      99.349      98.497      95.070      89.130      81.101      71.697    
  61.742      51.986      42.971      34.995      28.159      22.439      17.762      14.032      13.573      10.728    
  8.6343      7.1525      6.1624      5.5730      5.3250      5.3840      5.7301      6.3515      7.2431      8.4076    
  9.8546      11.598      13.656      16.039      18.744      21.731      24.914      28.155      31.288      34.116    
  36.251      37.222      36.605      34.078      29.497      22.996      15.053      6.4805     -1.7095     -8.4930    
 -13.001     -14.605     -12.940     -7.9305     0.15132      10.655      22.607      34.890      46.499      56.774    
  65.527      73.005      79.727      86.257      92.980      99.871      106.41      111.88      115.48      116.45    
  114.28      108.81      100.34      89.631      77.706      65.622      54.230      44.063      35.338      28.051    
  22.091      17.313      16.508      12.871      10.151      8.1839      6.8192      5.9329      5.4359      5.2731    
  5.4129      5.8363      6.5308      7.4917      8.7228      10.236      12.050      14.183      16.646      19.425    
  22.463      25.651      28.836      31.841      34.366      35.926      36.051      34.346      30.556      24.666    
  16.992      8.2163     -.68619     -8.6292     -14.606     -17.816     -17.711     -14.019     -6.8017      3.4759    
  15.933      29.400      42.673      54.821      65.401      74.517      82.677      90.549      98.679      107.26    
  115.90      123.78      129.90      133.29      133.14      128.97      120.86      109.47      95.918      81.541    
  67.567      54.868      43.891      34.723      27.239      21.236      19.946      15.412      11.979      9.4530    
  7.6572      6.4365      5.6696      5.2743      5.2022      5.4249      5.9233      6.6857      7.7097      9.0023    
  10.579      12.461      14.669      17.209      20.055      23.130      26.307      29.423      32.264      34.403    
  35.343      34.635      31.940      27.103      20.260      11.906      2.8799     -5.7623     -12.940     -17.711    
 -19.353     -17.403     -11.699     -2.4758      9.5787      23.372      37.619      51.166      63.294      73.880    
  83.333      92.362      101.66      111.62      122.08      132.25      141.01      147.22      149.78      147.80    
  140.96      129.75      115.31      99.090      82.654      67.293      53.799      42.460      33.206      25.794    
  23.844      18.326      14.108      10.961      8.6812      7.0876      6.0279      5.3899      5.1024      5.1239    
  5.4288      5.9995      6.8275      7.9144      9.2712      10.917      12.876      15.170      17.796      20.713    
  23.828      27.001      30.063      32.715      34.471      34.853      33.459      30.025      24.515      17.205    
  8.7245     -.72161E-02 -7.9309     -14.019     -17.402     -17.429     -13.727     -6.2815      4.4710      17.626    
  31.954      46.186      59.364      71.091      81.585      91.499      101.62      112.51      124.28      136.32    
  147.48      156.56      162.24      163.21      158.67      148.66      134.22      116.98      98.644      80.845    
  64.805      51.132      39.917      30.933      28.108      21.546      16.497      12.685      9.8816      7.8812    
  6.5066      5.6160      5.1114      4.9340      5.0497      5.4361      6.0799      6.9773      8.1347      9.5672    
  11.298      13.355      15.755      18.488      21.497      24.679      27.888      30.938      33.440      34.913    
  34.915      33.106      29.307      23.584      16.316      8.1960     0.15084     -6.8024     -11.698     -13.726    
 -12.305     -7.1773      1.4966      13.074      26.499      40.526      54.049      66.416      77.583      88.048    
  98.585      109.91      122.34      135.57      148.56      160.08      168.78      173.08      171.66      164.01    
  150.74      133.47      114.16      94.579      76.320      60.395      47.166      36.520      32.580      24.961    
  19.067      14.577      11.230      8.8009      7.0941      5.9425      5.2211      4.8499      4.7832      4.9937    
  5.4643      6.1876      7.1661      8.4104      9.9400      11.783      13.967      16.506      19.381      22.530    
  25.840      29.168      32.288      34.765      36.146      36.039      34.164      30.411      24.917      18.099    
  10.655      3.4747     -2.4764     -6.2802     -7.1761     -4.6679      1.3620      10.569      22.156      35.024    
  48.048      60.395      71.752      82.378      92.932      104.17      116.60      130.21      144.21      157.41    
  168.52      175.92      177.95      173.54      162.72      146.69      127.50      107.16      87.407      69.640    