   9   9   0   0
  0.1255842E+02  0.4913800E-09  0.4913800E-09  0.5405200E-09  0.5000000E-15
  1.000000000000000E-004
  CAR 
 unknown system                          
     14.35357092    -20.37240371  301      1.18663888      1.00000000
    -20.372  0.0000E+00  0.0000E+00
    -20.257  0.0000E+00  0.0000E+00
    -20.141  0.0000E+00  0.0000E+00
    -20.025  0.0000E+00  0.0000E+00
    -19.909  0.0000E+00  0.0000E+00
    -19.794  0.0000E+00  0.0000E+00
    -19.678  0.0000E+00  0.0000E+00
    -19.562  0.0000E+00  0.0000E+00
    -19.446  0.0000E+00  0.0000E+00
    -19.331  0.0000E+00  0.0000E+00
    -19.215  0.0000E+00  0.0000E+00
    -19.099  0.0000E+00  0.0000E+00
    -18.983  0.0000E+00  0.0000E+00
    -18.868  0.0000E+00  0.0000E+00
    -18.752  0.0000E+00  0.0000E+00
    -18.636  0.0000E+00  0.0000E+00
    -18.520  0.0000E+00  0.0000E+00
    -18.405  0.0000E+00  0.0000E+00
    -18.289  0.9105E+00  0.2551E-01
    -18.173  0.1635E+01  0.1741E+00
    -18.057  0.2773E+01  0.4204E+00
    -17.942  0.4721E+01  0.8716E+00
    -17.826  0.8158E+01  0.1693E+01
    -17.710  0.3967E+00  0.1996E+01
    -17.594  0.1508E+01  0.2129E+01
    -17.479  0.3222E+01  0.2380E+01
    -17.363  0.7563E+01  0.3294E+01
    -17.247  0.2027E+01  0.3738E+01
    -17.131  0.8892E+00  0.3896E+01
    -17.016  0.5938E+00  0.3972E+01
    -16.900  0.2507E+01  0.4097E+01
    -16.784  0.7832E+01  0.5003E+01
    -16.668  0.2643E+01  0.5498E+01
    -16.553  0.1543E+01  0.5736E+01
    -16.437  0.1015E+01  0.5883E+01
    -16.321  0.5885E+00  0.5974E+01
    -16.205  0.6561E+02  0.8865E+01
    -16.090  0.0000E+00  0.1200E+02
    -15.974  0.0000E+00  0.1200E+02
    -15.858  0.0000E+00  0.1200E+02
    -15.742  0.0000E+00  0.1200E+02
    -15.627  0.0000E+00  0.1200E+02
    -15.511  0.0000E+00  0.1200E+02
    -15.395  0.0000E+00  0.1200E+02
    -15.279  0.0000E+00  0.1200E+02
    -15.164  0.0000E+00  0.1200E+02
    -15.048  0.0000E+00  0.1200E+02
    -14.932  0.0000E+00  0.1200E+02
    -14.816  0.0000E+00  0.1200E+02
    -14.700  0.0000E+00  0.1200E+02
    -14.585  0.0000E+00  0.1200E+02
    -14.469  0.0000E+00  0.1200E+02
    -14.353  0.0000E+00  0.1200E+02
    -14.237  0.0000E+00  0.1200E+02
    -14.122  0.0000E+00  0.1200E+02
    -14.006  0.0000E+00  0.1200E+02
    -13.890  0.0000E+00  0.1200E+02
    -13.774  0.0000E+00  0.1200E+02
    -13.659  0.0000E+00  0.1200E+02
    -13.543  0.0000E+00  0.1200E+02
    -13.427  0.0000E+00  0.1200E+02
    -13.311  0.0000E+00  0.1200E+02
    -13.196  0.0000E+00  0.1200E+02
    -13.080  0.0000E+00  0.1200E+02
    -12.964  0.0000E+00  0.1200E+02
    -12.848  0.0000E+00  0.1200E+02
    -12.733  0.0000E+00  0.1200E+02
    -12.617  0.0000E+00  0.1200E+02
    -12.501  0.0000E+00  0.1200E+02
    -12.385  0.0000E+00  0.1200E+02
    -12.270  0.0000E+00  0.1200E+02
    -12.154  0.0000E+00  0.1200E+02
    -12.038  0.0000E+00  0.1200E+02
    -11.922  0.0000E+00  0.1200E+02
    -11.807  0.0000E+00  0.1200E+02
    -11.691  0.0000E+00  0.1200E+02
    -11.575  0.0000E+00  0.1200E+02
    -11.459  0.0000E+00  0.1200E+02
    -11.344  0.0000E+00  0.1200E+02
    -11.228  0.0000E+00  0.1200E+02
    -11.112  0.0000E+00  0.1200E+02
    -10.996  0.0000E+00  0.1200E+02
    -10.881  0.0000E+00  0.1200E+02
    -10.765  0.0000E+00  0.1200E+02
    -10.649  0.0000E+00  0.1200E+02
    -10.533  0.0000E+00  0.1200E+02
    -10.418  0.0000E+00  0.1200E+02
    -10.302  0.0000E+00  0.1200E+02
    -10.186  0.0000E+00  0.1200E+02
    -10.070  0.0000E+00  0.1200E+02
     -9.955  0.0000E+00  0.1200E+02
     -9.839  0.0000E+00  0.1200E+02
     -9.723  0.0000E+00  0.1200E+02
     -9.607  0.0000E+00  0.1200E+02
     -9.492  0.0000E+00  0.1200E+02
     -9.376  0.0000E+00  0.1200E+02
     -9.260  0.0000E+00  0.1200E+02
     -9.144  0.0000E+00  0.1200E+02
     -9.029  0.0000E+00  0.1200E+02
     -8.913  0.0000E+00  0.1200E+02
     -8.797  0.0000E+00  0.1200E+02
     -8.681  0.0000E+00  0.1200E+02
     -8.566  0.0000E+00  0.1200E+02
     -8.450  0.0000E+00  0.1200E+02
     -8.334  0.0000E+00  0.1200E+02
     -8.218  0.1851E-01  0.1200E+02
     -8.103  0.2884E+00  0.1202E+02
     -7.987  0.4501E+00  0.1206E+02
     -7.871  0.6584E+00  0.1213E+02
     -7.755  0.8656E+00  0.1222E+02
     -7.640  0.1177E+01  0.1233E+02
     -7.524  0.1632E+01  0.1249E+02
     -7.408  0.2829E+01  0.1273E+02
     -7.292  0.9088E+01  0.1344E+02
     -7.177  0.9636E+00  0.1388E+02
     -7.061  0.5115E+00  0.1396E+02
     -6.945  0.2713E+00  0.1401E+02
     -6.829  0.2459E+00  0.1403E+02
     -6.714  0.3873E+00  0.1407E+02
     -6.598  0.5920E+00  0.1412E+02
     -6.482  0.1002E+01  0.1421E+02
     -6.366  0.1699E+01  0.1437E+02
     -6.251  0.4640E+01  0.1469E+02
     -6.135  0.3360E+01  0.1531E+02
     -6.019  0.1884E+01  0.1560E+02
     -5.903  0.1114E+01  0.1577E+02
     -5.787  0.7537E+00  0.1588E+02
     -5.672  0.4989E+00  0.1595E+02
     -5.556  0.1959E+00  0.1600E+02
     -5.440  0.1054E+01  0.1604E+02
     -5.324  0.3006E+01  0.1627E+02
     -5.209  0.3003E+01  0.1667E+02
     -5.093  0.2904E+01  0.1700E+02
     -4.977  0.2483E+01  0.1732E+02
     -4.861  0.1695E+01  0.1756E+02
     -4.746  0.1244E+01  0.1773E+02
     -4.630  0.8924E+00  0.1786E+02
     -4.514  0.7235E+00  0.1794E+02
     -4.398  0.3932E+01  0.1814E+02
     -4.283  0.1061E+02  0.1978E+02
     -4.167  0.5869E+01  0.2074E+02
     -4.051  0.5914E+01  0.2148E+02
     -3.935  0.2851E+01  0.2207E+02
     -3.820  0.8301E+01  0.2272E+02
     -3.704  0.4741E+01  0.2352E+02
     -3.588  0.2117E+01  0.2391E+02
     -3.472  0.1050E-01  0.2400E+02
     -3.357  0.0000E+00  0.2400E+02
     -3.241  0.0000E+00  0.2400E+02
     -3.125  0.0000E+00  0.2400E+02
     -3.009  0.0000E+00  0.2400E+02
     -2.894  0.0000E+00  0.2400E+02
     -2.778  0.0000E+00  0.2400E+02
     -2.662  0.0000E+00  0.2400E+02
     -2.546  0.0000E+00  0.2400E+02
     -2.431  0.0000E+00  0.2400E+02
     -2.315  0.0000E+00  0.2400E+02
     -2.199  0.0000E+00  0.2400E+02
     -2.083  0.1307E+02  0.2473E+02
     -1.968  0.5483E+01  0.2595E+02
     -1.852  0.5298E+01  0.2660E+02
     -1.736  0.6758E+01  0.2749E+02
     -1.620  0.4975E+01  0.2819E+02
     -1.505  0.1068E+02  0.2918E+02
     -1.389  0.4064E+01  0.2988E+02
     -1.273  0.2184E+01  0.3008E+02
     -1.157  0.1164E+02  0.3124E+02
     -1.042  0.2386E+01  0.3191E+02
     -0.926  0.2081E+02  0.3299E+02
     -0.810  0.1617E+01  0.3390E+02
     -0.694  0.6929E+01  0.3426E+02
     -0.579  0.7126E+01  0.3500E+02
     -0.463  0.1127E+02  0.3619E+02
     -0.347  0.5816E+01  0.3737E+02
     -0.231  0.4706E+01  0.3794E+02
     -0.116  0.1148E+02  0.3899E+02
      0.000  0.5160E+01  0.4002E+02
      0.116  0.1422E+02  0.4095E+02
      0.232  0.1628E-01  0.4200E+02
      0.347  0.1213E+02  0.4254E+02
      0.463  0.3539E+01  0.4366E+02
      0.579  0.4340E+01  0.4417E+02
      0.695  0.6928E+01  0.4479E+02
      0.810  0.9548E+01  0.4587E+02
      0.926  0.7762E+01  0.4662E+02
      1.042  0.7246E+01  0.4787E+02
      1.158  0.0000E+00  0.4800E+02
      1.273  0.0000E+00  0.4800E+02
      1.389  0.0000E+00  0.4800E+02
      1.505  0.0000E+00  0.4800E+02
      1.621  0.0000E+00  0.4800E+02
      1.736  0.0000E+00  0.4800E+02
      1.852  0.0000E+00  0.4800E+02
      1.968  0.0000E+00  0.4800E+02
      2.084  0.0000E+00  0.4800E+02
      2.199  0.0000E+00  0.4800E+02
      2.315  0.0000E+00  0.4800E+02
      2.431  0.0000E+00  0.4800E+02
      2.547  0.0000E+00  0.4800E+02
      2.662  0.0000E+00  0.4800E+02
      2.778  0.0000E+00  0.4800E+02
      2.894  0.0000E+00  0.4800E+02
      3.010  0.0000E+00  0.4800E+02
      3.126  0.0000E+00  0.4800E+02
      3.241  0.0000E+00  0.4800E+02
      3.357  0.0000E+00  0.4800E+02
      3.473  0.0000E+00  0.4800E+02
      3.589  0.0000E+00  0.4800E+02
      3.704  0.0000E+00  0.4800E+02
      3.820  0.0000E+00  0.4800E+02
      3.936  0.0000E+00  0.4800E+02
      4.052  0.0000E+00  0.4800E+02
      4.167  0.0000E+00  0.4800E+02
      4.283  0.0000E+00  0.4800E+02
      4.399  0.0000E+00  0.4800E+02
      4.515  0.0000E+00  0.4800E+02
      4.630  0.0000E+00  0.4800E+02
      4.746  0.0000E+00  0.4800E+02
      4.862  0.0000E+00  0.4800E+02
      4.978  0.0000E+00  0.4800E+02
      5.093  0.0000E+00  0.4800E+02
      5.209  0.0000E+00  0.4800E+02
      5.325  0.0000E+00  0.4800E+02
      5.441  0.0000E+00  0.4800E+02
      5.556  0.0000E+00  0.4800E+02
      5.672  0.0000E+00  0.4800E+02
      5.788  0.0000E+00  0.4800E+02
      5.904  0.0000E+00  0.4800E+02
      6.019  0.0000E+00  0.4800E+02
      6.135  0.0000E+00  0.4800E+02
      6.251  0.0000E+00  0.4800E+02
      6.367  0.0000E+00  0.4800E+02
      6.482  0.0000E+00  0.4800E+02
      6.598  0.0000E+00  0.4800E+02
      6.714  0.0000E+00  0.4800E+02
      6.830  0.0000E+00  0.4800E+02
      6.945  0.0000E+00  0.4800E+02
      7.061  0.0000E+00  0.4800E+02
      7.177  0.3226E-02  0.4800E+02
      7.293  0.2987E-01  0.4800E+02
      7.408  0.8345E-01  0.4801E+02
      7.524  0.1649E+00  0.4802E+02
      7.640  0.2321E+00  0.4805E+02
      7.756  0.2694E+00  0.4807E+02
      7.871  0.2886E+00  0.4811E+02
      7.987  0.3296E+00  0.4814E+02
      8.103  0.3773E+00  0.4818E+02
      8.219  0.4277E+00  0.4823E+02
      8.334  0.4806E+00  0.4828E+02
      8.450  0.5356E+00  0.4834E+02
      8.566  0.6543E+00  0.4841E+02
      8.682  0.8087E+00  0.4849E+02
      8.797  0.8117E+00  0.4859E+02
      8.913  0.8726E+00  0.4869E+02
      9.029  0.9356E+00  0.4879E+02
      9.145  0.1001E+01  0.4891E+02
      9.260  0.1067E+01  0.4903E+02
      9.376  0.1528E+01  0.4918E+02
      9.492  0.1373E+01  0.4936E+02
      9.608  0.1245E+01  0.4950E+02
      9.723  0.1398E+01  0.4965E+02
      9.839  0.1482E+01  0.4982E+02
      9.955  0.1794E+01  0.5004E+02
     10.071  0.1101E+01  0.5019E+02
     10.186  0.1943E+01  0.5034E+02
     10.302  0.5869E+01  0.5074E+02
     10.418  0.6895E+01  0.5184E+02
     10.534  0.4127E+01  0.5234E+02
     10.649  0.8236E+01  0.5307E+02
     10.765  0.6691E+01  0.5396E+02
     10.881  0.2560E+01  0.5446E+02
     10.997  0.4061E+01  0.5479E+02
     11.112  0.7881E+01  0.5552E+02
     11.228  0.4516E+01  0.5608E+02
     11.344  0.6658E+01  0.5677E+02
     11.460  0.7130E+01  0.5758E+02
     11.575  0.1757E+01  0.5805E+02
     11.691  0.1698E+02  0.5861E+02
     11.807  0.2320E+01  0.5963E+02
     11.923  0.9331E+00  0.5979E+02
     12.039  0.6312E+00  0.5988E+02
     12.154  0.4755E+00  0.5994E+02
     12.270  0.3066E+00  0.5999E+02
     12.386  0.0000E+00  0.6000E+02
     12.502  0.0000E+00  0.6000E+02
     12.617  0.0000E+00  0.6000E+02
     12.733  0.0000E+00  0.6000E+02
     12.849  0.0000E+00  0.6000E+02
     12.965  0.0000E+00  0.6000E+02
     13.080  0.0000E+00  0.6000E+02
     13.196  0.0000E+00  0.6000E+02
     13.312  0.0000E+00  0.6000E+02
     13.428  0.0000E+00  0.6000E+02
     13.543  0.0000E+00  0.6000E+02
     13.659  0.0000E+00  0.6000E+02
     13.775  0.0000E+00  0.6000E+02
     13.891  0.0000E+00  0.6000E+02
     14.006  0.0000E+00  0.6000E+02
     14.122  0.0000E+00  0.6000E+02
     14.238  0.0000E+00  0.6000E+02
     14.354  0.0000E+00  0.6000E+02
