Starting job 12684651 on c5-[37,39-40,42] on saga at Wed Sep 18 14:38:07 CEST 2024

The following modules were not unloaded:
  (Use "module --force purge" to unload all):

  1) StdEnv
 running on    4 total cores
 distrk:  each k-point on    4 cores,    1 groups
 distr:  one band on    2 cores,    2 groups
 using from now: INCAR     
 vasp.5.4.4.18Apr17-6-g9f103f2a35 (build Jul 15 2019 14:02:39) complex          
  
 POSCAR found type information on POSCAR  Si O 
 POSCAR found :  2 types and       9 ions
 scaLAPACK will be used
 LDA part: xc-table for Pade appr. of Perdew
 POSCAR, INCAR and KPOINTS ok, starting setup
 FFT: planning ...
 WAVECAR not read
 entering main loop
       N       E                     dE             d eps       ncg     rms          rms(c)
DAV:   1     0.360088588152E+03    0.36009E+03   -0.30121E+04  1620   0.188E+03
DAV:   2    -0.572228730744E+02   -0.41731E+03   -0.40660E+03  2152   0.368E+02
DAV:   3    -0.803510464862E+02   -0.23128E+02   -0.23042E+02  1938   0.950E+01
DAV:   4    -0.806518487442E+02   -0.30080E+00   -0.30028E+00  1952   0.117E+01
DAV:   5    -0.806569656777E+02   -0.51169E-02   -0.51156E-02  1902   0.154E+00    0.188E+01
RMM:   6    -0.710603019410E+02    0.95967E+01   -0.40454E+01  1720   0.331E+01    0.513E+00
RMM:   7    -0.710327061382E+02    0.27596E-01   -0.14990E+00  1902   0.557E+00    0.339E+00
RMM:   8    -0.710490935066E+02   -0.16387E-01   -0.25393E-01  1835   0.412E+00    0.624E-01
RMM:   9    -0.710420577846E+02    0.70357E-02   -0.55478E-02  1937   0.121E+00    0.133E-01
RMM:  10    -0.710450528204E+02   -0.29950E-02   -0.13845E-02  1896   0.619E-01    0.228E-01
RMM:  11    -0.710437720032E+02    0.12808E-02   -0.25493E-03  1932   0.287E-01    0.630E-02
RMM:  12    -0.710437262391E+02    0.45764E-04   -0.79468E-04  1925   0.147E-01    0.808E-03
RMM:  13    -0.710437272758E+02   -0.10367E-05   -0.20206E-05  1313   0.265E-02
   1 F= -.71043727E+02 E0= -.71043727E+02  d E =0.000000E+00

Job 12684651 consumed 0.0 billing hours from project nn9988k.

Submitted 2024-09-18T14:38:03; waited 4.0 seconds in the queue after becoming eligible to run.

Requested wallclock time: 10.0 minutes
Elapsed wallclock time:   31.0 seconds

Task and CPU statistics:
ID              CPUs  Tasks  CPU util                Start  Elapsed  Exit status
12684651           4            0.0 %  2024-09-18T14:38:07   31.0 s  0
12684651.batch     1      1     8.4 %  2024-09-18T14:38:07   31.0 s  0
12684651.vasp      4      4    84.8 %  2024-09-18T14:38:11   27.0 s  0

Used CPU time:   1.6 CPU minutes
Unused CPU time: 29.8 CPU seconds

Memory statistics, in GiB:
ID               Alloc   Usage
12684651          14.8        
12684651.batch     3.7     0.0
12684651.vasp     14.8     0.2

Job 12684651 completed at Wed Sep 18 14:38:38 CEST 2024
