<?xml version="1.0" encoding="ISO-8859-1"?>
<modeling>
 <generator>
  <i name="program" type="string">vasp </i>
  <i name="version" type="string">5.4.4.18Apr17-6-g9f103f2a35  </i>
  <i name="subversion" type="string">(build Jul 15 2019 14:02:39) complex            parallel </i>
  <i name="platform" type="string">TEST </i>
  <i name="date" type="string">2024 09 18 </i>
  <i name="time" type="string">14:38:13 </i>
 </generator>
 <incar>
  <i type="string" name="PREC">normal    ! low/normal/accurate</i>
  <i type="string" name="ALGO"> Fast      ! Algorithm for electronic re</i>
  <i type="int" name="ISPIN">     1</i>
  <i type="int" name="NELMIN">     4</i>
  <i name="EDIFF">      0.00001000</i>
  <i type="int" name="NSW">     0</i>
  <i name="ENCUT">    700.00000000</i>
  <i type="string" name="LREAL"> Auto      ! Projection in reciprocal sp</i>
  <i type="int" name="ISMEAR">    -5</i>
  <i name="SIGMA">      0.20000000</i>
  <i type="logical" name="LWAVE"> F  </i>
  <v type="int" name="KPOINT_BSE">    -1     0     0     0</v>
 </incar>
 <structure name="primitive_cell" >
  <crystal>
   <varray name="basis" >
    <v>       4.91380000       0.00000000       0.00000000 </v>
    <v>      -2.45690000       4.25547563       0.00000000 </v>
    <v>       0.00000000       0.00000000       5.40520000 </v>
   </varray>
   <i name="volume">    113.02573808 </i>
   <varray name="rec_basis" >
    <v>       0.20350849       0.11749568       0.00000000 </v>
    <v>       0.00000000       0.23499136       0.00000000 </v>
    <v>       0.00000000       0.00000000       0.18500703 </v>
   </varray>
  </crystal>
  <varray name="positions" >
   <v>       0.46980000       0.00000000      -0.33333333 </v>
   <v>       0.14830000      -0.26620000      -0.45226667 </v>
   <v>       0.41450000       0.26620000      -0.21440000 </v>
   <v>      -0.26620000       0.14830000       0.45226667 </v>
   <v>      -0.41450000      -0.14830000      -0.11893333 </v>
   <v>       0.00000000       0.46980000       0.33333333 </v>
   <v>      -0.46980000      -0.46980000       0.00000000 </v>
   <v>       0.26620000       0.41450000       0.21440000 </v>
   <v>      -0.14830000      -0.41450000       0.11893333 </v>
  </varray>
 </structure>
 <varray name="primitive_index" >
  <v type="int" >        1 </v>
  <v type="int" >        6 </v>
  <v type="int" >        4 </v>
  <v type="int" >        9 </v>
  <v type="int" >        5 </v>
  <v type="int" >        3 </v>
  <v type="int" >        2 </v>
  <v type="int" >        7 </v>
  <v type="int" >        8 </v>
 </varray>
 <kpoints>
  <generation param="Gamma">
   <v type="int" name="divisions">       6        6        5 </v>
   <v name="usershift">      0.00000000       0.00000000       0.00000000 </v>
   <v name="genvec1">      0.16666667      -0.00000000       0.00000000 </v>
   <v name="genvec2">      0.00000000       0.16666667       0.00000000 </v>
   <v name="genvec3">      0.00000000       0.00000000       0.20000000 </v>
   <v name="shift">      0.00000000       0.00000000       0.00000000 </v>
  </generation>
  <varray name="kpointlist" >
   <v>       0.00000000       0.00000000       0.00000000 </v>
   <v>       0.16666667       0.00000000       0.00000000 </v>
   <v>       0.33333333       0.00000000       0.00000000 </v>
   <v>       0.50000000       0.00000000       0.00000000 </v>
   <v>       0.16666667       0.16666667       0.00000000 </v>
   <v>       0.33333333       0.16666667       0.00000000 </v>
   <v>       0.33333333       0.33333333       0.00000000 </v>
   <v>       0.00000000       0.00000000       0.20000000 </v>
   <v>       0.16666667       0.00000000       0.20000000 </v>
   <v>       0.33333333       0.00000000       0.20000000 </v>
   <v>       0.50000000       0.00000000       0.20000000 </v>
   <v>      -0.33333333       0.00000000       0.20000000 </v>
   <v>      -0.16666667       0.00000000       0.20000000 </v>
   <v>       0.16666667       0.16666667       0.20000000 </v>
   <v>       0.33333333       0.16666667       0.20000000 </v>
   <v>       0.50000000       0.16666667       0.20000000 </v>
   <v>       0.33333333       0.33333333       0.20000000 </v>
   <v>       0.00000000       0.00000000       0.40000000 </v>
   <v>       0.16666667       0.00000000       0.40000000 </v>
   <v>       0.33333333       0.00000000       0.40000000 </v>
   <v>       0.50000000       0.00000000       0.40000000 </v>
   <v>      -0.33333333       0.00000000       0.40000000 </v>
   <v>      -0.16666667       0.00000000       0.40000000 </v>
   <v>       0.16666667       0.16666667       0.40000000 </v>
   <v>       0.33333333       0.16666667       0.40000000 </v>
   <v>       0.50000000       0.16666667       0.40000000 </v>
   <v>       0.33333333       0.33333333       0.40000000 </v>
  </varray>
  <varray name="weights" >
   <v>       0.00555556 </v>
   <v>       0.03333333 </v>
   <v>       0.03333333 </v>
   <v>       0.01666667 </v>
   <v>       0.03333333 </v>
   <v>       0.06666667 </v>
   <v>       0.01111111 </v>
   <v>       0.01111111 </v>
   <v>       0.03333333 </v>
   <v>       0.03333333 </v>
   <v>       0.03333333 </v>
   <v>       0.03333333 </v>
   <v>       0.03333333 </v>
   <v>       0.06666667 </v>
   <v>       0.06666667 </v>
   <v>       0.06666667 </v>
   <v>       0.02222222 </v>
   <v>       0.01111111 </v>
   <v>       0.03333333 </v>
   <v>       0.03333333 </v>
   <v>       0.03333333 </v>
   <v>       0.03333333 </v>
   <v>       0.03333333 </v>
   <v>       0.06666667 </v>
   <v>       0.06666667 </v>
   <v>       0.06666667 </v>
   <v>       0.02222222 </v>
  </varray>
  <varray name="tetrahedronlist"  type="int" >
   <v type="int" >        4        2        2        5       13 </v>
   <v type="int" >        4        1        2        2       13 </v>
   <v type="int" >        4        1        2        8       13 </v>
   <v type="int" >        4        2        5       13       14 </v>
   <v type="int" >        8        2        9       13       14 </v>
   <v type="int" >        8        2        8        9       13 </v>
   <v type="int" >        8        3        5        6       14 </v>
   <v type="int" >        8        2        3        5       14 </v>
   <v type="int" >        4        2        3        9       14 </v>
   <v type="int" >        4        3        6       14       15 </v>
   <v type="int" >        4        3       10       14       15 </v>
   <v type="int" >        4        3        9       10       14 </v>
   <v type="int" >        4        4        6        6       15 </v>
   <v type="int" >        4        3        4        6       15 </v>
   <v type="int" >        4        3        4       10       15 </v>
   <v type="int" >        4        4        6       15       16 </v>
   <v type="int" >        4        4       11       15       16 </v>
   <v type="int" >        4        4       10       11       15 </v>
   <v type="int" >        4        3        5        6       16 </v>
   <v type="int" >        4        3        4        6       16 </v>
   <v type="int" >        4        3        4       11       16 </v>
   <v type="int" >        4        3        5       14       16 </v>
   <v type="int" >        4        3       12       14       16 </v>
   <v type="int" >        4        3       11       12       16 </v>
   <v type="int" >        4        2        2        5       14 </v>
   <v type="int" >        4        2        3       12       14 </v>
   <v type="int" >        4        2        2        9       14 </v>
   <v type="int" >        4        2       12       13       14 </v>
   <v type="int" >        4        1        2        2        9 </v>
   <v type="int" >        4        1        2        9       13 </v>
   <v type="int" >        4        1        8        9       13 </v>
   <v type="int" >        4        3        5        6       12 </v>
   <v type="int" >        4        2        3        5       12 </v>
   <v type="int" >        4        2        5       12       13 </v>
   <v type="int" >        4        5        6       12       16 </v>
   <v type="int" >        4        5       12       14       16 </v>
   <v type="int" >        4        5       12       13       14 </v>
   <v type="int" >        8        6        6        7       16 </v>
   <v type="int" >        4        5        6        6       16 </v>
   <v type="int" >        4        5        6       14       16 </v>
   <v type="int" >        8        6        7       16       17 </v>
   <v type="int" >       16        6       15       16       17 </v>
   <v type="int" >        8        6       14       15       16 </v>
   <v type="int" >        8        6        6        7       17 </v>
   <v type="int" >        8        6        6       15       17 </v>
   <v type="int" >        4        3        5        6       15 </v>
   <v type="int" >        4        5        6        6       15 </v>
   <v type="int" >        4        5        6       15       16 </v>
   <v type="int" >        4        3        5       10       15 </v>
   <v type="int" >        4        5       10       14       15 </v>
   <v type="int" >        4        5       14       15       16 </v>
   <v type="int" >        4        2        3        5       10 </v>
   <v type="int" >        4        2        5       10       14 </v>
   <v type="int" >        4        2        9       10       14 </v>
   <v type="int" >        4        4        6        6       11 </v>
   <v type="int" >        8        3        4        6       11 </v>
   <v type="int" >        4        3        6       11       12 </v>
   <v type="int" >        4        6        6       11       15 </v>
   <v type="int" >        8        6       11       15       16 </v>
   <v type="int" >        4        6       11       12       16 </v>
   <v type="int" >        8        6        6        7       15 </v>
   <v type="int" >        8        6        7       15       16 </v>
   <v type="int" >        8        7       15       16       17 </v>
   <v type="int" >        4        4        6        6       16 </v>
   <v type="int" >        4        4        6       11       16 </v>
   <v type="int" >        4        3        6       11       15 </v>
   <v type="int" >        4        3       10       11       15 </v>
   <v type="int" >        4        3        5        6       10 </v>
   <v type="int" >        4        3        4        6       10 </v>
   <v type="int" >        4        4        6       10       11 </v>
   <v type="int" >        4        5        6       10       14 </v>
   <v type="int" >        4        6       10       14       15 </v>
   <v type="int" >        4        6       10       11       15 </v>
   <v type="int" >        4        5        6        6       14 </v>
   <v type="int" >        4        6        6       14       15 </v>
   <v type="int" >        4        3        6       12       14 </v>
   <v type="int" >        4        6       12       14       16 </v>
   <v type="int" >        4        3        4        6       12 </v>
   <v type="int" >        4        4        6       12       16 </v>
   <v type="int" >        4        4       11       12       16 </v>
   <v type="int" >        4        2        2        5        9 </v>
   <v type="int" >        4        2        3        5        9 </v>
   <v type="int" >        4        3        5        9       10 </v>
   <v type="int" >        4        2        5        9       13 </v>
   <v type="int" >        4        5        9       13       14 </v>
   <v type="int" >        4        5        9       10       14 </v>
   <v type="int" >        4        2        3        5       13 </v>
   <v type="int" >        4        3        5       13       14 </v>
   <v type="int" >        4        3       12       13       14 </v>
   <v type="int" >        4        1        2        2        8 </v>
   <v type="int" >        4        2        2        8        9 </v>
   <v type="int" >        4        9       13       14       23 </v>
   <v type="int" >        4        8        9       13       23 </v>
   <v type="int" >        4        8        9       18       23 </v>
   <v type="int" >        4        9       14       23       24 </v>
   <v type="int" >        4        9       19       23       24 </v>
   <v type="int" >        4        9       18       19       23 </v>
   <v type="int" >        4       10       14       15       24 </v>
   <v type="int" >        4        9       10       14       24 </v>
   <v type="int" >        4        9       10       19       24 </v>
   <v type="int" >        4       10       15       24       25 </v>
   <v type="int" >        4       10       20       24       25 </v>
   <v type="int" >        4       10       19       20       24 </v>
   <v type="int" >        4       11       15       16       25 </v>
   <v type="int" >        4       10       11       15       25 </v>
   <v type="int" >        4       10       11       20       25 </v>
   <v type="int" >        4       11       16       25       26 </v>
   <v type="int" >        4       11       21       25       26 </v>
   <v type="int" >        4       11       20       21       25 </v>
   <v type="int" >        4       12       14       16       26 </v>
   <v type="int" >        4       11       12       16       26 </v>
   <v type="int" >        4       11       12       21       26 </v>
   <v type="int" >        4       12       14       24       26 </v>
   <v type="int" >        4       12       22       24       26 </v>
   <v type="int" >        4       12       21       22       26 </v>
   <v type="int" >        4        9       13       14       24 </v>
   <v type="int" >        4       12       13       14       24 </v>
   <v type="int" >        4       12       13       22       24 </v>
   <v type="int" >        4        9       13       19       24 </v>
   <v type="int" >        4       13       19       23       24 </v>
   <v type="int" >        4       13       22       23       24 </v>
   <v type="int" >        4        8        9       13       19 </v>
   <v type="int" >        4        8       13       19       23 </v>
   <v type="int" >        4        8       18       19       23 </v>
   <v type="int" >        4       12       14       16       22 </v>
   <v type="int" >        4       12       13       14       22 </v>
   <v type="int" >        4       13       14       22       23 </v>
   <v type="int" >        4       14       16       22       26 </v>
   <v type="int" >        4       14       22       24       26 </v>
   <v type="int" >        4       14       22       23       24 </v>
   <v type="int" >        8       15       16       17       26 </v>
   <v type="int" >        4       14       15       16       26 </v>
   <v type="int" >        4       14       15       24       26 </v>
   <v type="int" >        8       15       17       26       27 </v>
   <v type="int" >        8       15       25       26       27 </v>
   <v type="int" >        4       15       24       25       26 </v>
   <v type="int" >        8       15       16       17       27 </v>
   <v type="int" >        8       15       16       25       27 </v>
   <v type="int" >        8       16       25       26       27 </v>
   <v type="int" >        4       10       14       15       25 </v>
   <v type="int" >        4       14       15       16       25 </v>
   <v type="int" >        4       14       16       25       26 </v>
   <v type="int" >        4       10       14       20       25 </v>
   <v type="int" >        4       14       20       24       25 </v>
   <v type="int" >        4       14       24       25       26 </v>
   <v type="int" >        4        9       10       14       20 </v>
   <v type="int" >        4        9       14       20       24 </v>
   <v type="int" >        4        9       19       20       24 </v>
   <v type="int" >        4       11       15       16       21 </v>
   <v type="int" >        4       11       12       16       21 </v>
   <v type="int" >        4       12       16       21       22 </v>
   <v type="int" >        4       15       16       21       25 </v>
   <v type="int" >        4       16       21       25       26 </v>
   <v type="int" >        4       16       21       22       26 </v>
   <v type="int" >        8       15       16       17       25 </v>
   <v type="int" >        8       16       17       25       26 </v>
   <v type="int" >        8       17       25       26       27 </v>
   <v type="int" >        4       11       15       16       26 </v>
   <v type="int" >        4       11       15       21       26 </v>
   <v type="int" >        4       15       21       25       26 </v>
   <v type="int" >        4       10       11       15       21 </v>
   <v type="int" >        4       10       15       21       25 </v>
   <v type="int" >        4       10       20       21       25 </v>
   <v type="int" >        4       10       14       15       20 </v>
   <v type="int" >        4       10       11       15       20 </v>
   <v type="int" >        4       11       15       20       21 </v>
   <v type="int" >        4       14       15       20       24 </v>
   <v type="int" >        4       15       20       24       25 </v>
   <v type="int" >        4       15       20       21       25 </v>
   <v type="int" >        4       12       14       16       24 </v>
   <v type="int" >        4       14       15       16       24 </v>
   <v type="int" >        4       15       16       24       25 </v>
   <v type="int" >        4       12       16       22       24 </v>
   <v type="int" >        4       16       22       24       26 </v>
   <v type="int" >        4       16       24       25       26 </v>
   <v type="int" >        4       11       12       16       22 </v>
   <v type="int" >        4       11       16       22       26 </v>
   <v type="int" >        4       11       21       22       26 </v>
   <v type="int" >        4        9       13       14       19 </v>
   <v type="int" >        4        9       10       14       19 </v>
   <v type="int" >        4       10       14       19       20 </v>
   <v type="int" >        4       13       14       19       23 </v>
   <v type="int" >        4       14       19       23       24 </v>
   <v type="int" >        4       14       19       20       24 </v>
   <v type="int" >        4       12       13       14       23 </v>
   <v type="int" >        4       12       14       23       24 </v>
   <v type="int" >        4       12       22       23       24 </v>
   <v type="int" >        4        8        9       13       18 </v>
   <v type="int" >        4        9       13       18       19 </v>
   <v type="int" >        4       13       18       19       23 </v>
   <v type="int" >        4       19       19       23       24 </v>
   <v type="int" >        4       18       19       19       23 </v>
   <v type="int" >        2       18       18       19       19 </v>
   <v type="int" >        2       19       19       24       24 </v>
   <v type="int" >        4       20       24       24       25 </v>
   <v type="int" >        4       19       20       24       24 </v>
   <v type="int" >        8       19       20       23       24 </v>
   <v type="int" >        8       20       24       25       26 </v>
   <v type="int" >        8       20       22       24       26 </v>
   <v type="int" >        8       20       22       23       24 </v>
   <v type="int" >        8       21       25       26       26 </v>
   <v type="int" >        8       20       21       25       26 </v>
   <v type="int" >        8       20       21       22       26 </v>
   <v type="int" >        4       21       21       25       26 </v>
   <v type="int" >        4       21       21       22       26 </v>
   <v type="int" >        4       22       24       25       26 </v>
   <v type="int" >        4       21       22       25       26 </v>
   <v type="int" >        4       21       21       22       25 </v>
   <v type="int" >        4       22       24       24       25 </v>
   <v type="int" >        4       20       22       24       25 </v>
   <v type="int" >        4       20       21       22       25 </v>
   <v type="int" >        4       19       23       24       24 </v>
   <v type="int" >        4       22       23       24       24 </v>
   <v type="int" >        8       19       23       23       24 </v>
   <v type="int" >        8       18       19       23       23 </v>
   <v type="int" >        4       18       18       19       23 </v>
   <v type="int" >        8       25       25       26       27 </v>
   <v type="int" >        4       24       25       25       26 </v>
   <v type="int" >        2       24       24       25       25 </v>
   <v type="int" >        4       25       25       27       27 </v>
   <v type="int" >        8       25       26       27       27 </v>
   <v type="int" >       16       25       26       26       27 </v>
   <v type="int" >        8       24       25       26       26 </v>
   <v type="int" >        4       22       24       24       26 </v>
   <v type="int" >        4       24       24       25       26 </v>
   <v type="int" >        4       19       20       22       24 </v>
   <v type="int" >        4       19       22       24       24 </v>
   <v type="int" >        4       19       22       23       24 </v>
   <v type="int" >        4       21       25       25       26 </v>
   <v type="int" >        2       21       21       25       25 </v>
   <v type="int" >        4       20       21       21       25 </v>
  </varray>
  <i name="volumeweight">      0.00092593 </i>
 </kpoints>
 <parameters>
  <separator name="general" >
   <i type="string" name="SYSTEM">unknown system</i>
   <i type="logical" name="LCOMPAT"> F  </i>
  </separator>
  <separator name="electronic" >
   <i type="string" name="PREC">normal</i>
   <i name="ENMAX">    700.00000000</i>
   <i name="ENAUG">    605.39200000</i>
   <i name="EDIFF">      0.00001000</i>
   <i type="int" name="IALGO">    68</i>
   <i type="int" name="IWAVPR">    10</i>
   <i type="int" name="NBANDS">    30</i>
   <i name="NELECT">     48.00000000</i>
   <i type="int" name="TURBO">     0</i>
   <i type="int" name="IRESTART">     0</i>
   <i type="int" name="NREBOOT">     0</i>
   <i type="int" name="NMIN">     0</i>
   <i name="EREF">      0.00000000</i>
   <separator name="electronic smearing" >
    <i type="int" name="ISMEAR">    -5</i>
    <i name="SIGMA">      0.20000000</i>
    <i name="KSPACING">      0.50000000</i>
    <i type="logical" name="KGAMMA"> T  </i>
   </separator>
   <separator name="electronic projectors" >
    <i type="logical" name="LREAL"> T  </i>
    <v name="ROPT">     -0.00050000     -0.00050000</v>
    <i type="int" name="LMAXPAW">  -100</i>
    <i type="int" name="LMAXMIX">     2</i>
    <i type="logical" name="NLSPLINE"> F  </i>
   </separator>
   <separator name="electronic startup" >
    <i type="int" name="ISTART">     0</i>
    <i type="int" name="ICHARG">     2</i>
    <i type="int" name="INIWAV">     1</i>
   </separator>
   <separator name="electronic spin" >
    <i type="int" name="ISPIN">     1</i>
    <i type="logical" name="LNONCOLLINEAR"> F  </i>
    <v name="MAGMOM">      1.00000000      1.00000000      1.00000000      1.00000000      1.00000000      1.00000000      1.00000000      1.00000000      1.00000000</v>
    <i name="NUPDOWN">     -1.00000000</i>
    <i type="logical" name="LSORBIT"> F  </i>
    <v name="SAXIS">      0.00000000      0.00000000      1.00000000</v>
    <i type="logical" name="LSPIRAL"> F  </i>
    <v name="QSPIRAL">      0.00000000      0.00000000      0.00000000</v>
    <i type="logical" name="LZEROZ"> F  </i>
   </separator>
   <separator name="electronic exchange-correlation" >
    <i type="logical" name="LASPH"> F  </i>
    <i type="logical" name="LMETAGGA"> F  </i>
   </separator>
   <separator name="electronic convergence" >
    <i type="int" name="NELM">    60</i>
    <i type="int" name="NELMDL">    -5</i>
    <i type="int" name="NELMIN">     4</i>
    <i name="ENINI">    700.00000000</i>
    <separator name="electronic convergence detail" >
     <i type="logical" name="LDIAG"> T  </i>
     <i type="logical" name="LSUBROT"> F  </i>
     <i name="WEIMIN">      0.00000000</i>
     <i name="EBREAK">      0.00000008</i>
     <i name="DEPER">      0.30000000</i>
     <i type="int" name="NRMM">     4</i>
     <i name="TIME">      0.40000000</i>
    </separator>
   </separator>
   <separator name="electronic mixer" >
    <i name="AMIX">      0.40000000</i>
    <i name="BMIX">      1.00000000</i>
    <i name="AMIN">      0.10000000</i>
    <i name="AMIX_MAG">      1.60000000</i>
    <i name="BMIX_MAG">      1.00000000</i>
    <separator name="electronic mixer details" >
     <i type="int" name="IMIX">     4</i>
     <i type="logical" name="MIXFIRST"> F  </i>
     <i type="int" name="MAXMIX">   -45</i>
     <i name="WC">    100.00000000</i>
     <i type="int" name="INIMIX">     1</i>
     <i type="int" name="MIXPRE">     1</i>
     <i type="int" name="MREMOVE">     5</i>
    </separator>
   </separator>
   <separator name="electronic dipolcorrection" >
    <i type="logical" name="LDIPOL"> F  </i>
    <i type="logical" name="LMONO"> F  </i>
    <i type="int" name="IDIPOL">     0</i>
    <i name="EPSILON">      1.00000000</i>
    <v name="DIPOL">   -100.00000000   -100.00000000   -100.00000000</v>
    <i name="EFIELD">      0.00000000</i>
   </separator>
  </separator>
  <separator name="grids" >
   <i type="int" name="NGX">    32</i>
   <i type="int" name="NGY">    32</i>
   <i type="int" name="NGZ">    36</i>
   <i type="int" name="NGXF">    64</i>
   <i type="int" name="NGYF">    64</i>
   <i type="int" name="NGZF">    72</i>
   <i type="logical" name="ADDGRID"> F  </i>
  </separator>
  <separator name="ionic" >
   <i type="int" name="NSW">     0</i>
   <i type="int" name="IBRION">    -1</i>
   <i type="int" name="MDALGO">     0</i>
   <i type="int" name="ISIF">     2</i>
   <i name="PSTRESS">      0.00000000</i>
   <i name="EDIFFG">      0.00010000</i>
   <i type="int" name="NFREE">     0</i>
   <i name="POTIM">      0.50000000</i>
   <i name="SMASS">     -3.00000000</i>
   <i name="SCALEE">      1.00000000</i>
  </separator>
  <separator name="ionic md" >
   <i name="TEBEG">      0.00010000</i>
   <i name="TEEND">      0.00010000</i>
   <i type="int" name="NBLOCK">     1</i>
   <i type="int" name="KBLOCK">     1</i>
   <i type="int" name="NPACO">   256</i>
   <i name="APACO">     16.00000000</i>
  </separator>
  <separator name="symmetry" >
   <i type="int" name="ISYM">     2</i>
   <i name="SYMPREC">      0.00001000</i>
  </separator>
  <separator name="dos" >
   <i type="int" name="LORBIT">     0</i>
   <v name="RWIGS">     -1.00000000     -1.00000000</v>
   <i type="int" name="NEDOS">   301</i>
   <i name="EMIN">     10.00000000</i>
   <i name="EMAX">    -10.00000000</i>
   <i name="EFERMI">      0.00000000</i>
  </separator>
  <separator name="writing" >
   <i type="int" name="NWRITE">     2</i>
   <i type="logical" name="LWAVE"> F  </i>
   <i type="logical" name="LDOWNSAMPLE"> F  </i>
   <i type="logical" name="LCHARG"> T  </i>
   <i type="logical" name="LPARD"> F  </i>
   <i type="logical" name="LVTOT"> F  </i>
   <i type="logical" name="LVHAR"> F  </i>
   <i type="logical" name="LELF"> F  </i>
   <i type="logical" name="LOPTICS"> F  </i>
   <v name="STM">      0.00000000      0.00000000      0.00000000      0.00000000      0.00000000      0.00000000      0.00000000</v>
  </separator>
  <separator name="performance" >
   <i type="int" name="NPAR">     2</i>
   <i type="int" name="NSIM">     4</i>
   <i type="int" name="NBLK">    -1</i>
   <i type="logical" name="LPLANE"> T  </i>
   <i type="logical" name="LSCALAPACK"> T  </i>
   <i type="logical" name="LSCAAWARE"> F  </i>
   <i type="logical" name="LSCALU"> F  </i>
   <i type="logical" name="LASYNC"> F  </i>
   <i type="logical" name="LORBITALREAL"> F  </i>
  </separator>
  <separator name="miscellaneous" >
   <i type="int" name="IDIOT">     3</i>
   <i type="int" name="ISPECIAL">     0</i>
   <i type="logical" name="LMUSIC"> F  </i>
   <v name="POMASS">     28.08500000     16.00000000</v>
   <v name="DARWINR">      0.00000000      0.00000000</v>
   <v name="DARWINV">      1.00000000      1.00000000</v>
   <i type="logical" name="LCORR"> T  </i>
  </separator>
  <i type="logical" name="GGA_COMPAT"> T  </i>
  <i type="logical" name="LBERRY"> F  </i>
  <i type="int" name="ICORELEVEL">     0</i>
  <i type="logical" name="LDAU"> F  </i>
  <i type="int" name="I_CONSTRAINED_M">     0</i>
  <separator name="electronic exchange-correlation" >
   <i type="string" name="GGA">--</i>
   <i type="int" name="VOSKOWN">     0</i>
   <i type="logical" name="LHFCALC"> F  </i>
   <i type="string" name="PRECFOCK"></i>
   <i type="logical" name="LSYMGRAD"> F  </i>
   <i type="logical" name="LHFONE"> F  </i>
   <i type="logical" name="LRHFCALC"> F  </i>
   <i type="logical" name="LTHOMAS"> F  </i>
   <i type="logical" name="LMODELHF"> F  </i>
   <i name="ENCUT4O">     -1.00000000</i>
   <i type="int" name="EXXOEP">     0</i>
   <i type="int" name="FOURORBIT">     0</i>
   <i name="AEXX">      0.00000000</i>
   <i name="HFALPHA">      0.00000000</i>
   <i name="MCALPHA">      0.00000000</i>
   <i name="ALDAX">      1.00000000</i>
   <i name="AGGAX">      1.00000000</i>
   <i name="ALDAC">      1.00000000</i>
   <i name="AGGAC">      1.00000000</i>
   <i type="int" name="NKREDX">     1</i>
   <i type="int" name="NKREDY">     1</i>
   <i type="int" name="NKREDZ">     1</i>
   <i type="logical" name="SHIFTRED"> F  </i>
   <i type="logical" name="ODDONLY"> F  </i>
   <i type="logical" name="EVENONLY"> F  </i>
   <i type="int" name="LMAXFOCK">     0</i>
   <i type="int" name="NMAXFOCKAE">     0</i>
   <i type="logical" name="LFOCKAEDFT"> F  </i>
   <i name="HFSCREEN">      0.00000000</i>
   <i name="HFSCREENC">      0.00000000</i>
   <i type="int" name="NBANDSGWLOW">     0</i>
  </separator>
  <separator name="vdW DFT" >
   <i type="logical" name="LUSE_VDW"> F  </i>
   <i name="Zab_VDW">     -0.84910000</i>
   <i name="PARAM1">      0.12340000</i>
   <i name="PARAM2">      1.00000000</i>
   <i name="PARAM3">      0.00000000</i>
  </separator>
  <separator name="model GW" >
   <i type="int" name="MODEL_GW">     0</i>
   <i name="MODEL_EPS0">      7.53504921</i>
   <i name="MODEL_ALPHA">      1.00000000</i>
  </separator>
  <separator name="linear response parameters" >
   <i type="logical" name="LEPSILON"> F  </i>
   <i type="logical" name="LRPA"> F  </i>
   <i type="logical" name="LNABLA"> F  </i>
   <i type="logical" name="LVEL"> F  </i>
   <i type="int" name="KINTER">     0</i>
   <i name="CSHIFT">      0.10000000</i>
   <i name="OMEGAMAX">     -1.00000000</i>
   <i name="DEG_THRESHOLD">      0.00200000</i>
   <i name="RTIME">     -0.10000000</i>
   <i name="WPLASMAI">      0.00000000</i>
   <v name="DFIELD">      0.00000000      0.00000000      0.00000000</v>
   <v name="WPLASMA">      0.00000000      0.00000000      0.00000000      0.00000000      0.00000000      0.00000000      0.00000000      0.00000000      0.00000000</v>
  </separator>
  <separator name="orbital magnetization" >
   <i type="logical" name="NUCIND"> F  </i>
   <v name="MAGPOS">      0.00000000      0.00000000      0.00000000</v>
   <i type="logical" name="LNICSALL"> T  </i>
   <i type="logical" name="ORBITALMAG"> F  </i>
   <i type="logical" name="LMAGBLOCH"> F  </i>
   <i type="logical" name="LCHIMAG"> F  </i>
   <i type="logical" name="LGAUGE"> T  </i>
   <i type="int" name="MAGATOM">     0</i>
   <v name="MAGDIPOL">      0.00000000      0.00000000      0.00000000</v>
   <v name="AVECCONST">      0.00000000      0.00000000      0.00000000</v>
  </separator>
  <separator name="response functions" >
   <i type="logical" name="LADDER"> F  </i>
   <i type="logical" name="LRPAFORCE"> F  </i>
   <i type="logical" name="LFXC"> F  </i>
   <i type="logical" name="LHARTREE"> T  </i>
   <i type="int" name="IBSE">     0</i>
   <v type="int" name="KPOINT">    -1     0     0     0</v>
   <i type="logical" name="LTCTE"> F  </i>
   <i type="logical" name="LTETE"> F  </i>
   <i type="logical" name="LTRIPLET"> F  </i>
   <i type="logical" name="LFXCEPS"> F  </i>
   <i type="logical" name="LFXHEG"> F  </i>
   <i type="int" name="NATURALO">     2</i>
   <i type="logical" name="L2ORDER"> F  </i>
   <i type="logical" name="LMP2LT"> F  </i>
   <i type="logical" name="LUSEW"> F  </i>
   <i name="ENCUTGW">     -2.00000000</i>
   <i name="ENCUTGWSOFT">     -2.00000000</i>
   <i name="ENCUTLF">     -1.00000000</i>
   <i type="int" name="LMAXMP2">    -1</i>
   <i name="SCISSOR">      0.00000000</i>
   <i type="int" name="NOMEGA">     0</i>
   <i type="int" name="NOMEGAR">     0</i>
   <i type="int" name="NBANDSGW">    -1</i>
   <i type="int" name="NBANDSO">    -1</i>
   <i type="int" name="NBANDSV">    -1</i>
   <i type="int" name="NELM">     1</i>
   <i type="int" name="NELMHF">     1</i>
   <i type="int" name="DIM">     3</i>
   <i type="int" name="ANTIRES">     0</i>
   <i name="OMEGAMAX">    -30.00000000</i>
   <i name="OMEGAMIN">    -30.00000000</i>
   <i name="OMEGATL">   -200.00000000</i>
   <i type="int" name="OMEGAGRID">   140</i>
   <i name="CSHIFT">     -0.10000000</i>
   <i type="logical" name="SELFENERGY"> F  </i>
   <i type="logical" name="LSPECTRAL"> F  </i>
   <i type="logical" name="LSPECTRALGW"> F  </i>
   <i type="logical" name="LSINGLES"> F  </i>
   <i type="logical" name="LFERMIGW"> F  </i>
   <i type="logical" name="ODDONLYGW"> F  </i>
   <i type="logical" name="EVENONLYGW"> F  </i>
   <i type="int" name="NKREDLFX">     1</i>
   <i type="int" name="NKREDLFY">     1</i>
   <i type="int" name="NKREDLFZ">     1</i>
   <i type="int" name="MAXMEM">  2800</i>
   <i type="int" name="TELESCOPE">     0</i>
   <i type="int" name="TAUPAR">     1</i>
   <i type="int" name="OMEGAPAR">    -1</i>
   <i name="LAMBDA">      1.00000000</i>
  </separator>
  <separator name="External order field" >
   <i name="OFIELD_KAPPA">      0.00000000</i>
   <v name="OFIELD_K">      0.00000000      0.00000000      0.00000000</v>
   <i name="OFIELD_Q6_NEAR">      0.00000000</i>
   <i name="OFIELD_Q6_FAR">      0.00000000</i>
   <i name="OFIELD_A">      0.00000000</i>
  </separator>
 </parameters>
 <atominfo>
  <atoms>       9 </atoms>
  <types>       2 </types>
  <array name="atoms" >
   <dimension dim="1">ion</dimension>
   <field type="string">element</field>
   <field type="int">atomtype</field>
   <set>
    <rc><c>Si</c><c>   1</c></rc>
    <rc><c>Si</c><c>   1</c></rc>
    <rc><c>Si</c><c>   1</c></rc>
    <rc><c>O </c><c>   2</c></rc>
    <rc><c>O </c><c>   2</c></rc>
    <rc><c>O </c><c>   2</c></rc>
    <rc><c>O </c><c>   2</c></rc>
    <rc><c>O </c><c>   2</c></rc>
    <rc><c>O </c><c>   2</c></rc>
   </set>
  </array>
  <array name="atomtypes" >
   <dimension dim="1">type</dimension>
   <field type="int">atomspertype</field>
   <field type="string">element</field>
   <field>mass</field>
   <field>valence</field>
   <field type="string">pseudopotential</field>
   <set>
    <rc><c>   3</c><c>Si</c><c>     28.08500000</c><c>      4.00000000</c><c> PAW_PBE Si 05Jan2001                   </c></rc>
    <rc><c>   6</c><c>O </c><c>     16.00000000</c><c>      6.00000000</c><c> PAW_PBE O 08Apr2002                    </c></rc>
   </set>
  </array>
 </atominfo>
 <structure name="initialpos" >
  <crystal>
   <varray name="basis" >
    <v>       4.91380000       0.00000000       0.00000000 </v>
    <v>      -2.45690000       4.25547563       0.00000000 </v>
    <v>       0.00000000       0.00000000       5.40520000 </v>
   </varray>
   <i name="volume">    113.02573808 </i>
   <varray name="rec_basis" >
    <v>       0.20350849       0.11749568       0.00000000 </v>
    <v>       0.00000000       0.23499136       0.00000000 </v>
    <v>       0.00000000       0.00000000       0.18500703 </v>
   </varray>
  </crystal>
  <varray name="positions" >
   <v>       0.46980000       0.00000000       0.66666667 </v>
   <v>       0.53020000       0.53020000       0.00000000 </v>
   <v>       0.00000000       0.46980000       0.33333333 </v>
   <v>       0.41450000       0.26620000       0.78560000 </v>
   <v>       0.58550000       0.85170000       0.88106667 </v>
   <v>       0.14830000       0.73380000       0.54773333 </v>
   <v>       0.26620000       0.41450000       0.21440000 </v>
   <v>       0.85170000       0.58550000       0.11893333 </v>
   <v>       0.73380000       0.14830000       0.45226667 </v>
  </varray>
 </structure>
 <calculation>
  <scstep>
   <time name="dav">    1.15    1.18</time>
   <time name="total">    1.21    1.30</time>
   <energy>
    <i name="alphaZ">     69.72428684 </i>
    <i name="ewald">  -1887.17190222 </i>
    <i name="hartreedc">   -937.16683993 </i>
    <i name="XCdc">    142.01202102 </i>
    <i name="pawpsdc">   1574.92322788 </i>
    <i name="pawaedc">  -1533.24131965 </i>
    <i name="eentropy">      0.00000000 </i>
    <i name="bandstr">     27.59100060 </i>
    <i name="atom">   2903.41811360 </i>
    <i name="e_fr_energy">    360.08858815 </i>
    <i name="e_wo_entrp">    360.08858815 </i>
    <i name="e_0_energy">    360.08858815 </i>
   </energy>
  </scstep>
  <scstep>
   <time name="dav">    1.41    1.42</time>
   <time name="total">    1.41    1.42</time>
   <energy>
    <i name="e_fr_energy">    -57.22287307 </i>
    <i name="e_wo_entrp">    -57.22287307 </i>
    <i name="e_0_energy">    -57.22287307 </i>
   </energy>
  </scstep>
  <scstep>
   <time name="dav">    1.30    1.31</time>
   <time name="total">    1.30    1.31</time>
   <energy>
    <i name="e_fr_energy">    -80.35104649 </i>
    <i name="e_wo_entrp">    -80.35104649 </i>
    <i name="e_0_energy">    -80.35104649 </i>
   </energy>
  </scstep>
  <scstep>
   <time name="dav">    1.30    1.31</time>
   <time name="total">    1.30    1.31</time>
   <energy>
    <i name="e_fr_energy">    -80.65184874 </i>
    <i name="e_wo_entrp">    -80.65184874 </i>
    <i name="e_0_energy">    -80.65184874 </i>
   </energy>
  </scstep>
  <scstep>
   <time name="dav">    1.28    1.29</time>
   <time name="total">    1.35    1.36</time>
   <energy>
    <i name="e_fr_energy">    -80.65696568 </i>
    <i name="e_wo_entrp">    -80.65696568 </i>
    <i name="e_0_energy">    -80.65696568 </i>
   </energy>
  </scstep>
  <scstep>
   <time name="diag">    0.24    0.24</time>
   <time name="diis">    0.78    0.78</time>
   <time name="orth">    0.04    0.04</time>
   <time name="total">    1.17    1.18</time>
   <energy>
    <i name="e_fr_energy">    -71.06030194 </i>
    <i name="e_wo_entrp">    -71.06030194 </i>
    <i name="e_0_energy">    -71.06030194 </i>
   </energy>
  </scstep>
  <scstep>
   <time name="diag">    0.23    0.24</time>
   <time name="diis">    0.86    0.86</time>
   <time name="orth">    0.04    0.04</time>
   <time name="total">    1.25    1.26</time>
   <energy>
    <i name="e_fr_energy">    -71.03270614 </i>
    <i name="e_wo_entrp">    -71.03270614 </i>
    <i name="e_0_energy">    -71.03270614 </i>
   </energy>
  </scstep>
  <scstep>
   <time name="diag">    0.23    0.24</time>
   <time name="diis">    0.83    0.83</time>
   <time name="orth">    0.04    0.04</time>
   <time name="total">    1.22    1.23</time>
   <energy>
    <i name="e_fr_energy">    -71.04909351 </i>
    <i name="e_wo_entrp">    -71.04909351 </i>
    <i name="e_0_energy">    -71.04909351 </i>
   </energy>
  </scstep>
  <scstep>
   <time name="diag">    0.23    0.24</time>
   <time name="diis">    0.85    0.86</time>
   <time name="orth">    0.04    0.04</time>
   <time name="total">    1.24    1.25</time>
   <energy>
    <i name="e_fr_energy">    -71.04205778 </i>
    <i name="e_wo_entrp">    -71.04205778 </i>
    <i name="e_0_energy">    -71.04205778 </i>
   </energy>
  </scstep>
  <scstep>
   <time name="diag">    0.23    0.24</time>
   <time name="diis">    0.84    0.85</time>
   <time name="orth">    0.04    0.04</time>
   <time name="total">    1.24    1.24</time>
   <energy>
    <i name="e_fr_energy">    -71.04505282 </i>
    <i name="e_wo_entrp">    -71.04505282 </i>
    <i name="e_0_energy">    -71.04505282 </i>
   </energy>
  </scstep>
  <scstep>
   <time name="diag">    0.24    0.24</time>
   <time name="diis">    0.85    0.86</time>
   <time name="orth">    0.04    0.04</time>
   <time name="total">    1.25    1.25</time>
   <energy>
    <i name="e_fr_energy">    -71.04377200 </i>
    <i name="e_wo_entrp">    -71.04377200 </i>
    <i name="e_0_energy">    -71.04377200 </i>
   </energy>
  </scstep>
  <scstep>
   <time name="diag">    0.23    0.23</time>
   <time name="diis">    0.84    0.85</time>
   <time name="orth">    0.04    0.04</time>
   <time name="total">    1.23    1.24</time>
   <energy>
    <i name="e_fr_energy">    -71.04372624 </i>
    <i name="e_wo_entrp">    -71.04372624 </i>
    <i name="e_0_energy">    -71.04372624 </i>
   </energy>
  </scstep>
  <scstep>
   <time name="diag">    0.23    0.24</time>
   <time name="diis">    0.62    0.62</time>
   <time name="orth">    0.04    0.04</time>
   <time name="total">    0.94    0.95</time>
   <energy>
    <i name="alphaZ">     69.72428684 </i>
    <i name="ewald">  -1887.17190222 </i>
    <i name="hartreedc">  -1071.53775554 </i>
    <i name="XCdc">    151.13064816 </i>
    <i name="pawpsdc">   2051.84165398 </i>
    <i name="pawaedc">  -2012.51286897 </i>
    <i name="eentropy">      0.00000000 </i>
    <i name="bandstr">   -275.93590313 </i>
    <i name="atom">   2903.41811360 </i>
    <i name="e_fr_energy">    -71.04372728 </i>
    <i name="e_wo_entrp">    -71.04372728 </i>
    <i name="e_0_energy">    -71.04372728 </i>
   </energy>
  </scstep>
  <structure>
   <crystal>
    <varray name="basis" >
     <v>       4.91380000       0.00000000       0.00000000 </v>
     <v>      -2.45690000       4.25547563       0.00000000 </v>
     <v>       0.00000000       0.00000000       5.40520000 </v>
    </varray>
    <i name="volume">    113.02573808 </i>
    <varray name="rec_basis" >
     <v>       0.20350849       0.11749568       0.00000000 </v>
     <v>       0.00000000       0.23499136       0.00000000 </v>
     <v>       0.00000000       0.00000000       0.18500703 </v>
    </varray>
   </crystal>
   <varray name="positions" >
    <v>       0.46980000       0.00000000       0.66666667 </v>
    <v>       0.53020000       0.53020000       0.00000000 </v>
    <v>       0.00000000       0.46980000       0.33333333 </v>
    <v>       0.41450000       0.26620000       0.78560000 </v>
    <v>       0.58550000       0.85170000       0.88106667 </v>
    <v>       0.14830000       0.73380000       0.54773333 </v>
    <v>       0.26620000       0.41450000       0.21440000 </v>
    <v>       0.85170000       0.58550000       0.11893333 </v>
    <v>       0.73380000       0.14830000       0.45226667 </v>
   </varray>
  </structure>
  <varray name="forces" >
   <v>       0.41861469       0.00000000      -0.00000000 </v>
   <v>      -0.20930735      -0.36253096      -0.00000000 </v>
   <v>      -0.20930735       0.36253096      -0.00000000 </v>
   <v>      -0.51077272       0.27045075       0.07282563 </v>
   <v>       0.02116914       0.57756753      -0.07282563 </v>
   <v>      -0.51077272      -0.27045075      -0.07282563 </v>
   <v>       0.48960358      -0.30711677      -0.07282563 </v>
   <v>       0.48960358       0.30711677       0.07282563 </v>
   <v>       0.02116914      -0.57756753       0.07282563 </v>
  </varray>
  <varray name="stress" >
   <v>      83.79230672      -0.00000000       0.00000000 </v>
   <v>      -0.00000000      83.79230672      -0.00000000 </v>
   <v>       0.00000000      -0.00000000      70.08992062 </v>
  </varray>
  <energy>
   <i name="e_fr_energy">    -71.04372728 </i>
   <i name="e_wo_entrp">    -71.04372728 </i>
   <i name="e_0_energy">      0.00000000 </i>
  </energy>
  <time name="totalsc">   18.21   19.19</time>
  <eigenvalues>
   <array>
    <dimension dim="1">band</dimension>
    <dimension dim="2">kpoint</dimension>
    <dimension dim="3">spin</dimension>
    <field>eigene</field>
    <field>occ</field>
    <set>
     <set comment="spin 1">
      <set comment="kpoint 1">
       <r>  -18.3724    1.0000 </r>
       <r>  -16.8358    1.0000 </r>
       <r>  -16.8358    1.0000 </r>
       <r>  -16.2012    1.0000 </r>
       <r>  -16.1532    1.0000 </r>
       <r>  -16.1532    1.0000 </r>
       <r>   -7.1759    1.0000 </r>
       <r>   -7.1759    1.0000 </r>
       <r>   -4.3359    1.0000 </r>
       <r>   -4.3299    1.0000 </r>
       <r>   -4.1777    1.0000 </r>
       <r>   -4.1777    1.0000 </r>
       <r>   -1.8593    1.0000 </r>
       <r>   -1.8593    1.0000 </r>
       <r>   -1.6221    1.0000 </r>
       <r>   -1.3620    1.0000 </r>
       <r>   -0.4114    1.0000 </r>
       <r>   -0.4114    1.0000 </r>
       <r>   -0.3934    1.0000 </r>
       <r>    0.1097    1.0000 </r>
       <r>    0.1097    1.0000 </r>
       <r>    0.4189    1.0000 </r>
       <r>    0.7594    1.0000 </r>
       <r>    0.7594    1.0000 </r>
       <r>    7.1202    0.0000 </r>
       <r>   10.3979    0.0000 </r>
       <r>   10.3979    0.0000 </r>
       <r>   10.8996    0.0000 </r>
       <r>   10.8997    0.0000 </r>
       <r>   12.3536    0.0000 </r>
      </set>
      <set comment="kpoint 2">
       <r>  -18.2909    1.0000 </r>
       <r>  -16.9300    1.0000 </r>
       <r>  -16.8239    1.0000 </r>
       <r>  -16.2208    1.0000 </r>
       <r>  -16.1703    1.0000 </r>
       <r>  -16.1596    1.0000 </r>
       <r>   -7.2134    1.0000 </r>
       <r>   -6.9943    1.0000 </r>
       <r>   -4.3758    1.0000 </r>
       <r>   -4.3499    1.0000 </r>
       <r>   -4.2785    1.0000 </r>
       <r>   -4.0170    1.0000 </r>
       <r>   -1.9845    1.0000 </r>
       <r>   -1.7995    1.0000 </r>
       <r>   -1.5919    1.0000 </r>
       <r>   -1.1956    1.0000 </r>
       <r>   -0.6849    1.0000 </r>
       <r>   -0.4502    1.0000 </r>
       <r>   -0.4049    1.0000 </r>
       <r>    0.0469    1.0000 </r>
       <r>    0.0997    1.0000 </r>
       <r>    0.3167    1.0000 </r>
       <r>    0.8227    1.0000 </r>
       <r>    0.8564    1.0000 </r>
       <r>    7.5422    0.0000 </r>
       <r>   10.3844    0.0000 </r>
       <r>   10.4447    0.0000 </r>
       <r>   10.9346    0.0000 </r>
       <r>   11.0431    0.0000 </r>
       <r>   12.2946    0.0000 </r>
      </set>
      <set comment="kpoint 3">
       <r>  -18.0720    1.0000 </r>
       <r>  -17.1893    1.0000 </r>
       <r>  -16.7984    1.0000 </r>
       <r>  -16.2439    1.0000 </r>
       <r>  -16.1987    1.0000 </r>
       <r>  -16.1787    1.0000 </r>
       <r>   -7.2850    1.0000 </r>
       <r>   -6.5747    1.0000 </r>
       <r>   -4.6318    1.0000 </r>
       <r>   -4.3835    1.0000 </r>
       <r>   -4.3016    1.0000 </r>
       <r>   -3.7147    1.0000 </r>
       <r>   -2.0669    1.0000 </r>
       <r>   -1.6912    1.0000 </r>
       <r>   -1.5666    1.0000 </r>
       <r>   -1.1996    1.0000 </r>
       <r>   -1.0006    1.0000 </r>
       <r>   -0.5813    1.0000 </r>
       <r>   -0.4895    1.0000 </r>
       <r>   -0.0043    1.0000 </r>
       <r>    0.0650    1.0000 </r>
       <r>    0.2679    1.0000 </r>
       <r>    0.8507    1.0000 </r>
       <r>    0.9999    1.0000 </r>
       <r>    8.5410    0.0000 </r>
       <r>   10.4278    0.0000 </r>
       <r>   10.5549    0.0000 </r>
       <r>   11.0555    0.0000 </r>
       <r>   11.3935    0.0000 </r>
       <r>   11.7477    0.0000 </r>
      </set>
      <set comment="kpoint 4">
       <r>  -17.8825    1.0000 </r>
       <r>  -17.4038    1.0000 </r>
       <r>  -16.7847    1.0000 </r>
       <r>  -16.2498    1.0000 </r>
       <r>  -16.2114    1.0000 </r>
       <r>  -16.1903    1.0000 </r>
       <r>   -7.3193    1.0000 </r>
       <r>   -6.3125    1.0000 </r>
       <r>   -4.8201    1.0000 </r>
       <r>   -4.3609    1.0000 </r>
       <r>   -4.3298    1.0000 </r>
       <r>   -3.5490    1.0000 </r>
       <r>   -1.9948    1.0000 </r>
       <r>   -1.8284    1.0000 </r>
       <r>   -1.5978    1.0000 </r>
       <r>   -1.2168    1.0000 </r>
       <r>   -1.0086    1.0000 </r>
       <r>   -0.6643    1.0000 </r>
       <r>   -0.5970    1.0000 </r>
       <r>   -0.0073    1.0000 </r>
       <r>    0.0579    1.0000 </r>
       <r>    0.2984    1.0000 </r>
       <r>    0.8337    1.0000 </r>
       <r>    1.0576    1.0000 </r>
       <r>    9.3787    0.0000 </r>
       <r>   10.1156    0.0000 </r>
       <r>   10.8428    0.0000 </r>
       <r>   10.8434    0.0000 </r>
       <r>   11.6229    0.0000 </r>
       <r>   11.7049    0.0000 </r>
      </set>
      <set comment="kpoint 5">
       <r>  -18.1382    1.0000 </r>
       <r>  -17.1059    1.0000 </r>
       <r>  -16.8124    1.0000 </r>
       <r>  -16.2387    1.0000 </r>
       <r>  -16.1956    1.0000 </r>
       <r>  -16.1692    1.0000 </r>
       <r>   -7.2775    1.0000 </r>
       <r>   -6.6685    1.0000 </r>
       <r>   -4.6396    1.0000 </r>
       <r>   -4.3685    1.0000 </r>
       <r>   -4.2267    1.0000 </r>
       <r>   -3.8043    1.0000 </r>
       <r>   -2.0340    1.0000 </r>
       <r>   -1.7866    1.0000 </r>
       <r>   -1.4870    1.0000 </r>
       <r>   -1.0871    1.0000 </r>
       <r>   -1.0794    1.0000 </r>
       <r>   -0.5601    1.0000 </r>
       <r>   -0.3623    1.0000 </r>
       <r>   -0.1306    1.0000 </r>
       <r>    0.1824    1.0000 </r>
       <r>    0.2278    1.0000 </r>
       <r>    0.8415    1.0000 </r>
       <r>    0.9774    1.0000 </r>
       <r>    8.2498    0.0000 </r>
       <r>   10.4270    0.0000 </r>
       <r>   10.5689    0.0000 </r>
       <r>   11.0516    0.0000 </r>
       <r>   11.2223    0.0000 </r>
       <r>   11.9615    0.0000 </r>
      </set>
      <set comment="kpoint 6">
       <r>  -17.8893    1.0000 </r>
       <r>  -17.3844    1.0000 </r>
       <r>  -16.8046    1.0000 </r>
       <r>  -16.2472    1.0000 </r>
       <r>  -16.2096    1.0000 </r>
       <r>  -16.1875    1.0000 </r>
       <r>   -7.3426    1.0000 </r>
       <r>   -6.2125    1.0000 </r>
       <r>   -5.0391    1.0000 </r>
       <r>   -4.3206    1.0000 </r>
       <r>   -4.2290    1.0000 </r>
       <r>   -3.5568    1.0000 </r>
       <r>   -1.9832    1.0000 </r>
       <r>   -1.7843    1.0000 </r>
       <r>   -1.6579    1.0000 </r>
       <r>   -1.1640    1.0000 </r>
       <r>   -1.0016    1.0000 </r>
       <r>   -0.6954    1.0000 </r>
       <r>   -0.5070    1.0000 </r>
       <r>   -0.1889    1.0000 </r>
       <r>    0.0305    1.0000 </r>
       <r>    0.4228    1.0000 </r>
       <r>    0.8001    1.0000 </r>
       <r>    1.0689    1.0000 </r>
       <r>    9.2663    0.0000 </r>
       <r>   10.3657    0.0000 </r>
       <r>   10.6828    0.0000 </r>
       <r>   11.0860    0.0000 </r>
       <r>   11.4944    0.0000 </r>
       <r>   11.7078    0.0000 </r>
      </set>
      <set comment="kpoint 7">
       <r>  -17.6374    1.0000 </r>
       <r>  -17.6374    1.0000 </r>
       <r>  -16.8186    1.0000 </r>
       <r>  -16.2461    1.0000 </r>
       <r>  -16.2018    1.0000 </r>
       <r>  -16.2018    1.0000 </r>
       <r>   -7.3803    1.0000 </r>
       <r>   -5.6419    1.0000 </r>
       <r>   -5.6419    1.0000 </r>
       <r>   -4.2380    1.0000 </r>
       <r>   -4.2380    1.0000 </r>
       <r>   -3.4625    1.0000 </r>
       <r>   -1.8536    1.0000 </r>
       <r>   -1.8536    1.0000 </r>
       <r>   -1.8028    1.0000 </r>
       <r>   -0.9768    1.0000 </r>
       <r>   -0.9768    1.0000 </r>
       <r>   -0.8208    1.0000 </r>
       <r>   -0.6242    1.0000 </r>
       <r>   -0.1463    1.0000 </r>
       <r>   -0.1463    1.0000 </r>
       <r>    0.6585    1.0000 </r>
       <r>    0.6585    1.0000 </r>
       <r>    1.1002    1.0000 </r>
       <r>   10.0500    0.0000 </r>
       <r>   10.0500    0.0000 </r>
       <r>   10.5379    0.0000 </r>
       <r>   11.4768    0.0000 </r>
       <r>   11.6268    0.0000 </r>
       <r>   11.6565    0.0000 </r>
      </set>
      <set comment="kpoint 8">
       <r>  -18.2939    1.0000 </r>
       <r>  -17.2848    1.0000 </r>
       <r>  -16.4513    1.0000 </r>
       <r>  -16.1989    1.0000 </r>
       <r>  -16.1689    1.0000 </r>
       <r>  -16.1381    1.0000 </r>
       <r>   -7.8487    1.0000 </r>
       <r>   -6.3487    1.0000 </r>
       <r>   -4.4955    1.0000 </r>
       <r>   -4.4189    1.0000 </r>
       <r>   -4.3703    1.0000 </r>
       <r>   -3.8722    1.0000 </r>
       <r>   -1.9432    1.0000 </r>
       <r>   -1.6647    1.0000 </r>
       <r>   -1.5640    1.0000 </r>
       <r>   -1.2321    1.0000 </r>
       <r>   -0.6044    1.0000 </r>
       <r>   -0.4836    1.0000 </r>
       <r>   -0.4235    1.0000 </r>
       <r>   -0.2835    1.0000 </r>
       <r>    0.0780    1.0000 </r>
       <r>    0.5194    1.0000 </r>
       <r>    0.8098    1.0000 </r>
       <r>    0.9694    1.0000 </r>
       <r>    7.5143    0.0000 </r>
       <r>   10.2549    0.0000 </r>
       <r>   10.4190    0.0000 </r>
       <r>   10.5205    0.0000 </r>
       <r>   11.2229    0.0000 </r>
       <r>   12.1558    0.0000 </r>
      </set>
      <set comment="kpoint 9">
       <r>  -18.2167    1.0000 </r>
       <r>  -17.2839    1.0000 </r>
       <r>  -16.5345    1.0000 </r>
       <r>  -16.2139    1.0000 </r>
       <r>  -16.1880    1.0000 </r>
       <r>  -16.1493    1.0000 </r>
       <r>   -7.7038    1.0000 </r>
       <r>   -6.3569    1.0000 </r>
       <r>   -4.6737    1.0000 </r>
       <r>   -4.3772    1.0000 </r>
       <r>   -4.1809    1.0000 </r>
       <r>   -3.9219    1.0000 </r>
       <r>   -2.0434    1.0000 </r>
       <r>   -1.6488    1.0000 </r>
       <r>   -1.5280    1.0000 </r>
       <r>   -1.1545    1.0000 </r>
       <r>   -0.8340    1.0000 </r>
       <r>   -0.4977    1.0000 </r>
       <r>   -0.3945    1.0000 </r>
       <r>   -0.2395    1.0000 </r>
       <r>    0.1608    1.0000 </r>
       <r>    0.4156    1.0000 </r>
       <r>    0.7513    1.0000 </r>
       <r>    1.0110    1.0000 </r>
       <r>    7.8901    0.0000 </r>
       <r>   10.2685    0.0000 </r>
       <r>   10.5106    0.0000 </r>
       <r>   10.6054    0.0000 </r>
       <r>   11.2981    0.0000 </r>
       <r>   11.9825    0.0000 </r>
      </set>
      <set comment="kpoint 10">
       <r>  -18.0150    1.0000 </r>
       <r>  -17.3241    1.0000 </r>
       <r>  -16.7207    1.0000 </r>
       <r>  -16.2414    1.0000 </r>
       <r>  -16.2142    1.0000 </r>
       <r>  -16.1690    1.0000 </r>
       <r>   -7.4107    1.0000 </r>
       <r>   -6.3287    1.0000 </r>
       <r>   -4.9087    1.0000 </r>
       <r>   -4.3359    1.0000 </r>
       <r>   -4.0998    1.0000 </r>
       <r>   -3.8257    1.0000 </r>
       <r>   -2.1386    1.0000 </r>
       <r>   -1.7114    1.0000 </r>
       <r>   -1.4743    1.0000 </r>
       <r>   -1.2116    1.0000 </r>
       <r>   -0.8958    1.0000 </r>
       <r>   -0.6025    1.0000 </r>
       <r>   -0.4918    1.0000 </r>
       <r>   -0.0545    1.0000 </r>
       <r>    0.1604    1.0000 </r>
       <r>    0.2800    1.0000 </r>
       <r>    0.7939    1.0000 </r>
       <r>    0.9663    1.0000 </r>
       <r>    8.8059    0.0000 </r>
       <r>   10.3202    0.0000 </r>
       <r>   10.5726    0.0000 </r>
       <r>   11.0317    0.0000 </r>
       <r>   11.4057    0.0000 </r>
       <r>   11.6561    0.0000 </r>
      </set>
      <set comment="kpoint 11">
       <r>  -17.8601    1.0000 </r>
       <r>  -17.3927    1.0000 </r>
       <r>  -16.8313    1.0000 </r>
       <r>  -16.2502    1.0000 </r>
       <r>  -16.2159    1.0000 </r>
       <r>  -16.1815    1.0000 </r>
       <r>   -7.2718    1.0000 </r>
       <r>   -6.2733    1.0000 </r>
       <r>   -5.0443    1.0000 </r>
       <r>   -4.3574    1.0000 </r>
       <r>   -4.1053    1.0000 </r>
       <r>   -3.6723    1.0000 </r>
       <r>   -2.0470    1.0000 </r>
       <r>   -1.9460    1.0000 </r>
       <r>   -1.4708    1.0000 </r>
       <r>   -1.2616    1.0000 </r>
       <r>   -0.8454    1.0000 </r>
       <r>   -0.7255    1.0000 </r>
       <r>   -0.4212    1.0000 </r>
       <r>   -0.0733    1.0000 </r>
       <r>    0.1395    1.0000 </r>
       <r>    0.3322    1.0000 </r>
       <r>    0.7209    1.0000 </r>
       <r>    0.9968    1.0000 </r>
       <r>    9.5718    0.0000 </r>
       <r>   10.1814    0.0000 </r>
       <r>   10.6859    0.0000 </r>
       <r>   11.1527    0.0000 </r>
       <r>   11.5877    0.0000 </r>
       <r>   11.8332    0.0000 </r>
      </set>
      <set comment="kpoint 12">
       <r>  -18.0187    1.0000 </r>
       <r>  -17.3039    1.0000 </r>
       <r>  -16.7542    1.0000 </r>
       <r>  -16.2335    1.0000 </r>
       <r>  -16.1932    1.0000 </r>
       <r>  -16.1804    1.0000 </r>
       <r>   -7.4143    1.0000 </r>
       <r>   -6.3300    1.0000 </r>
       <r>   -4.9104    1.0000 </r>
       <r>   -4.3751    1.0000 </r>
       <r>   -4.0767    1.0000 </r>
       <r>   -3.7763    1.0000 </r>
       <r>   -2.0743    1.0000 </r>
       <r>   -1.7029    1.0000 </r>
       <r>   -1.5274    1.0000 </r>
       <r>   -1.3900    1.0000 </r>
       <r>   -0.9254    1.0000 </r>
       <r>   -0.5010    1.0000 </r>
       <r>   -0.3476    1.0000 </r>
       <r>   -0.0905    1.0000 </r>
       <r>    0.0624    1.0000 </r>
       <r>    0.3940    1.0000 </r>
       <r>    0.6361    1.0000 </r>
       <r>    1.0597    1.0000 </r>
       <r>    8.7722    0.0000 </r>
       <r>   10.3799    0.0000 </r>
       <r>   10.7657    0.0000 </r>
       <r>   11.1745    0.0000 </r>
       <r>   11.3643    0.0000 </r>
       <r>   11.7204    0.0000 </r>
      </set>
      <set comment="kpoint 13">
       <r>  -18.2173    1.0000 </r>
       <r>  -17.2799    1.0000 </r>
       <r>  -16.5456    1.0000 </r>
       <r>  -16.2126    1.0000 </r>
       <r>  -16.1774    1.0000 </r>
       <r>  -16.1534    1.0000 </r>
       <r>   -7.7049    1.0000 </r>
       <r>   -6.3570    1.0000 </r>
       <r>   -4.6779    1.0000 </r>
       <r>   -4.3784    1.0000 </r>
       <r>   -4.1951    1.0000 </r>
       <r>   -3.8934    1.0000 </r>
       <r>   -2.0167    1.0000 </r>
       <r>   -1.6660    1.0000 </r>
       <r>   -1.5226    1.0000 </r>
       <r>   -1.2052    1.0000 </r>
       <r>   -0.8772    1.0000 </r>
       <r>   -0.4124    1.0000 </r>
       <r>   -0.3833    1.0000 </r>
       <r>   -0.2599    1.0000 </r>
       <r>    0.1910    1.0000 </r>
       <r>    0.3770    1.0000 </r>
       <r>    0.7257    1.0000 </r>
       <r>    1.0405    1.0000 </r>
       <r>    7.8804    0.0000 </r>
       <r>   10.3071    0.0000 </r>
       <r>   10.5361    0.0000 </r>
       <r>   10.6547    0.0000 </r>
       <r>   11.2308    0.0000 </r>
       <r>   12.0381    0.0000 </r>
      </set>
      <set comment="kpoint 14">
       <r>  -18.0759    1.0000 </r>
       <r>  -17.2967    1.0000 </r>
       <r>  -16.6876    1.0000 </r>
       <r>  -16.2298    1.0000 </r>
       <r>  -16.2043    1.0000 </r>
       <r>  -16.1659    1.0000 </r>
       <r>   -7.4871    1.0000 </r>
       <r>   -6.3307    1.0000 </r>
       <r>   -4.8875    1.0000 </r>
       <r>   -4.3421    1.0000 </r>
       <r>   -4.0728    1.0000 </r>
       <r>   -3.8613    1.0000 </r>
       <r>   -2.0954    1.0000 </r>
       <r>   -1.6492    1.0000 </r>
       <r>   -1.5306    1.0000 </r>
       <r>   -1.2586    1.0000 </r>
       <r>   -0.9434    1.0000 </r>
       <r>   -0.4942    1.0000 </r>
       <r>   -0.4128    1.0000 </r>
       <r>   -0.1319    1.0000 </r>
       <r>    0.1774    1.0000 </r>
       <r>    0.3079    1.0000 </r>
       <r>    0.7117    1.0000 </r>
       <r>    1.0287    1.0000 </r>
       <r>    8.5210    0.0000 </r>
       <r>   10.3266    0.0000 </r>
       <r>   10.7366    0.0000 </r>
       <r>   10.8864    0.0000 </r>
       <r>   11.3510    0.0000 </r>
       <r>   11.7104    0.0000 </r>
      </set>
      <set comment="kpoint 15">
       <r>  -17.8618    1.0000 </r>
       <r>  -17.3909    1.0000 </r>
       <r>  -16.8280    1.0000 </r>
       <r>  -16.2488    1.0000 </r>
       <r>  -16.2244    1.0000 </r>
       <r>  -16.1780    1.0000 </r>
       <r>   -7.2849    1.0000 </r>
       <r>   -6.1896    1.0000 </r>
       <r>   -5.1858    1.0000 </r>
       <r>   -4.3201    1.0000 </r>
       <r>   -4.0728    1.0000 </r>
       <r>   -3.6905    1.0000 </r>
       <r>   -2.0914    1.0000 </r>
       <r>   -1.8139    1.0000 </r>
       <r>   -1.5880    1.0000 </r>
       <r>   -1.1317    1.0000 </r>
       <r>   -0.8990    1.0000 </r>
       <r>   -0.7068    1.0000 </r>
       <r>   -0.4206    1.0000 </r>
       <r>   -0.1379    1.0000 </r>
       <r>    0.1220    1.0000 </r>
       <r>    0.3744    1.0000 </r>
       <r>    0.7383    1.0000 </r>
       <r>    0.9710    1.0000 </r>
       <r>    9.4553    0.0000 </r>
       <r>   10.4447    0.0000 </r>
       <r>   10.6044    0.0000 </r>
       <r>   11.2069    0.0000 </r>
       <r>   11.4110    0.0000 </r>
       <r>   11.6780    0.0000 </r>
      </set>
      <set comment="kpoint 16">
       <r>  -17.8645    1.0000 </r>
       <r>  -17.3816    1.0000 </r>
       <r>  -16.8397    1.0000 </r>
       <r>  -16.2439    1.0000 </r>
       <r>  -16.2230    1.0000 </r>
       <r>  -16.1791    1.0000 </r>
       <r>   -7.2861    1.0000 </r>
       <r>   -6.1907    1.0000 </r>
       <r>   -5.1855    1.0000 </r>
       <r>   -4.3295    1.0000 </r>
       <r>   -4.0666    1.0000 </r>
       <r>   -3.6758    1.0000 </r>
       <r>   -2.0556    1.0000 </r>
       <r>   -1.8406    1.0000 </r>
       <r>   -1.6063    1.0000 </r>
       <r>   -1.1854    1.0000 </r>
       <r>   -0.9111    1.0000 </r>
       <r>   -0.6725    1.0000 </r>
       <r>   -0.3231    1.0000 </r>
       <r>   -0.1860    1.0000 </r>
       <r>    0.0724    1.0000 </r>
       <r>    0.4560    1.0000 </r>
       <r>    0.6516    1.0000 </r>
       <r>    1.0072    1.0000 </r>
       <r>    9.4450    0.0000 </r>
       <r>   10.3534    0.0000 </r>
       <r>   10.9105    0.0000 </r>
       <r>   11.0648    0.0000 </r>
       <r>   11.4922    0.0000 </r>
       <r>   11.7451    0.0000 </r>
      </set>
      <set comment="kpoint 17">
       <r>  -17.7367    1.0000 </r>
       <r>  -17.4751    1.0000 </r>
       <r>  -16.8786    1.0000 </r>
       <r>  -16.2433    1.0000 </r>
       <r>  -16.2407    1.0000 </r>
       <r>  -16.1814    1.0000 </r>
       <r>   -7.2404    1.0000 </r>
       <r>   -5.9344    1.0000 </r>
       <r>   -5.5180    1.0000 </r>
       <r>   -4.2976    1.0000 </r>
       <r>   -4.0623    1.0000 </r>
       <r>   -3.6177    1.0000 </r>
       <r>   -2.0594    1.0000 </r>
       <r>   -1.7559    1.0000 </r>
       <r>   -1.7526    1.0000 </r>
       <r>   -0.9677    1.0000 </r>
       <r>   -0.9119    1.0000 </r>
       <r>   -0.8454    1.0000 </r>
       <r>   -0.3631    1.0000 </r>
       <r>   -0.2074    1.0000 </r>
       <r>    0.0267    1.0000 </r>
       <r>    0.5739    1.0000 </r>
       <r>    0.6195    1.0000 </r>
       <r>    0.9661    1.0000 </r>
       <r>   10.0541    0.0000 </r>
       <r>   10.2547    0.0000 </r>
       <r>   10.6638    0.0000 </r>
       <r>   11.3713    0.0000 </r>
       <r>   11.4368    0.0000 </r>
       <r>   11.5262    0.0000 </r>
      </set>
      <set comment="kpoint 18">
       <r>  -18.0667    1.0000 </r>
       <r>  -17.7160    1.0000 </r>
       <r>  -16.2243    1.0000 </r>
       <r>  -16.1924    1.0000 </r>
       <r>  -16.1822    1.0000 </r>
       <r>  -16.1287    1.0000 </r>
       <r>   -8.2290    1.0000 </r>
       <r>   -5.5304    1.0000 </r>
       <r>   -4.8808    1.0000 </r>
       <r>   -4.5341    1.0000 </r>
       <r>   -4.5020    1.0000 </r>
       <r>   -3.6328    1.0000 </r>
       <r>   -1.7855    1.0000 </r>
       <r>   -1.5549    1.0000 </r>
       <r>   -1.5123    1.0000 </r>
       <r>   -1.0226    1.0000 </r>
       <r>   -0.8454    1.0000 </r>
       <r>   -0.7467    1.0000 </r>
       <r>   -0.6364    1.0000 </r>
       <r>   -0.4595    1.0000 </r>
       <r>   -0.0921    1.0000 </r>
       <r>    0.7638    1.0000 </r>
       <r>    0.9796    1.0000 </r>
       <r>    0.9806    1.0000 </r>
       <r>    8.4953    0.0000 </r>
       <r>    9.6464    0.0000 </r>
       <r>   10.2000    0.0000 </r>
       <r>   10.5273    0.0000 </r>
       <r>   11.2516    0.0000 </r>
       <r>   11.6914    0.0000 </r>
      </set>
      <set comment="kpoint 19">
       <r>  -18.0048    1.0000 </r>
       <r>  -17.6743    1.0000 </r>
       <r>  -16.3456    1.0000 </r>
       <r>  -16.2135    1.0000 </r>
       <r>  -16.1900    1.0000 </r>
       <r>  -16.1430    1.0000 </r>
       <r>   -8.0294    1.0000 </r>
       <r>   -5.6349    1.0000 </r>
       <r>   -5.0490    1.0000 </r>
       <r>   -4.4338    1.0000 </r>
       <r>   -4.3362    1.0000 </r>
       <r>   -3.6895    1.0000 </r>
       <r>   -1.9255    1.0000 </r>
       <r>   -1.6438    1.0000 </r>
       <r>   -1.4944    1.0000 </r>
       <r>   -1.1209    1.0000 </r>
       <r>   -0.9438    1.0000 </r>
       <r>   -0.5710    1.0000 </r>
       <r>   -0.5238    1.0000 </r>
       <r>   -0.3224    1.0000 </r>
       <r>   -0.0190    1.0000 </r>
       <r>    0.6523    1.0000 </r>
       <r>    0.9051    1.0000 </r>
       <r>    0.9349    1.0000 </r>
       <r>    8.7738    0.0000 </r>
       <r>    9.7829    0.0000 </r>
       <r>   10.3720    0.0000 </r>
       <r>   10.5681    0.0000 </r>
       <r>   11.3112    0.0000 </r>
       <r>   11.6699    0.0000 </r>
      </set>
      <set comment="kpoint 20">
       <r>  -17.8765    1.0000 </r>
       <r>  -17.5382    1.0000 </r>
       <r>  -16.6583    1.0000 </r>
       <r>  -16.2543    1.0000 </r>
       <r>  -16.1966    1.0000 </r>
       <r>  -16.1656    1.0000 </r>
       <r>   -7.5433    1.0000 </r>
       <r>   -5.9344    1.0000 </r>
       <r>   -5.2322    1.0000 </r>
       <r>   -4.3145    1.0000 </r>
       <r>   -4.0609    1.0000 </r>
       <r>   -3.8251    1.0000 </r>
       <r>   -2.1056    1.0000 </r>
       <r>   -1.9226    1.0000 </r>
       <r>   -1.3502    1.0000 </r>
       <r>   -1.1850    1.0000 </r>
       <r>   -0.9443    1.0000 </r>
       <r>   -0.4855    1.0000 </r>
       <r>   -0.3525    1.0000 </r>
       <r>   -0.1432    1.0000 </r>
       <r>    0.1205    1.0000 </r>
       <r>    0.4564    1.0000 </r>
       <r>    0.6819    1.0000 </r>
       <r>    0.8798    1.0000 </r>
       <r>    9.4991    0.0000 </r>
       <r>   10.0806    0.0000 </r>
       <r>   10.6263    0.0000 </r>
       <r>   10.8047    0.0000 </r>
       <r>   11.5895    0.0000 </r>
       <r>   11.7530    0.0000 </r>
      </set>
      <set comment="kpoint 21">
       <r>  -17.8204    1.0000 </r>
       <r>  -17.3740    1.0000 </r>
       <r>  -16.9063    1.0000 </r>
       <r>  -16.2715    1.0000 </r>
       <r>  -16.1988    1.0000 </r>
       <r>  -16.1755    1.0000 </r>
       <r>   -7.1887    1.0000 </r>
       <r>   -6.2076    1.0000 </r>
       <r>   -5.2835    1.0000 </r>
       <r>   -4.2858    1.0000 </r>
       <r>   -3.9216    1.0000 </r>
       <r>   -3.8884    1.0000 </r>
       <r>   -2.1153    1.0000 </r>
       <r>   -2.0863    1.0000 </r>
       <r>   -1.3616    1.0000 </r>
       <r>   -1.1059    1.0000 </r>
       <r>   -0.9525    1.0000 </r>
       <r>   -0.5136    1.0000 </r>
       <r>   -0.2109    1.0000 </r>
       <r>   -0.0653    1.0000 </r>
       <r>    0.1282    1.0000 </r>
       <r>    0.4112    1.0000 </r>
       <r>    0.4676    1.0000 </r>
       <r>    0.9082    1.0000 </r>
       <r>    9.9972    0.0000 </r>
       <r>   10.3847    0.0000 </r>
       <r>   10.7487    0.0000 </r>
       <r>   11.0606    0.0000 </r>
       <r>   11.4689    0.0000 </r>
       <r>   11.7990    0.0000 </r>
      </set>
      <set comment="kpoint 22">
       <r>  -17.8822    1.0000 </r>
       <r>  -17.5259    1.0000 </r>
       <r>  -16.6759    1.0000 </r>
       <r>  -16.2471    1.0000 </r>
       <r>  -16.1884    1.0000 </r>
       <r>  -16.1696    1.0000 </r>
       <r>   -7.5451    1.0000 </r>
       <r>   -5.9390    1.0000 </r>
       <r>   -5.2263    1.0000 </r>
       <r>   -4.3354    1.0000 </r>
       <r>   -4.0616    1.0000 </r>
       <r>   -3.7861    1.0000 </r>
       <r>   -2.0825    1.0000 </r>
       <r>   -1.9458    1.0000 </r>
       <r>   -1.3202    1.0000 </r>
       <r>   -1.2559    1.0000 </r>
       <r>   -1.0052    1.0000 </r>
       <r>   -0.4120    1.0000 </r>
       <r>   -0.3014    1.0000 </r>
       <r>   -0.1119    1.0000 </r>
       <r>    0.1321    1.0000 </r>
       <r>    0.3263    1.0000 </r>
       <r>    0.6307    1.0000 </r>
       <r>    0.9790    1.0000 </r>
       <r>    9.3814    0.0000 </r>
       <r>   10.3560    0.0000 </r>
       <r>   10.5568    0.0000 </r>
       <r>   11.0716    0.0000 </r>
       <r>   11.2101    0.0000 </r>
       <r>   11.6654    0.0000 </r>
      </set>
      <set comment="kpoint 23">
       <r>  -18.0061    1.0000 </r>
       <r>  -17.6721    1.0000 </r>
       <r>  -16.3555    1.0000 </r>
       <r>  -16.2108    1.0000 </r>
       <r>  -16.1821    1.0000 </r>
       <r>  -16.1446    1.0000 </r>
       <r>   -8.0299    1.0000 </r>
       <r>   -5.6362    1.0000 </r>
       <r>   -5.0483    1.0000 </r>
       <r>   -4.4301    1.0000 </r>
       <r>   -4.3448    1.0000 </r>
       <r>   -3.6782    1.0000 </r>
       <r>   -1.9187    1.0000 </r>
       <r>   -1.6410    1.0000 </r>
       <r>   -1.4919    1.0000 </r>
       <r>   -1.1498    1.0000 </r>
       <r>   -0.9760    1.0000 </r>
       <r>   -0.5683    1.0000 </r>
       <r>   -0.4517    1.0000 </r>
       <r>   -0.3470    1.0000 </r>
       <r>   -0.0187    1.0000 </r>
       <r>    0.6504    1.0000 </r>
       <r>    0.8151    1.0000 </r>
       <r>    1.0204    1.0000 </r>
       <r>    8.7479    0.0000 </r>
       <r>    9.8381    0.0000 </r>
       <r>   10.3311    0.0000 </r>
       <r>   10.6864    0.0000 </r>
       <r>   11.2027    0.0000 </r>
       <r>   11.6536    0.0000 </r>
      </set>
      <set comment="kpoint 24">
       <r>  -17.9095    1.0000 </r>
       <r>  -17.5816    1.0000 </r>
       <r>  -16.5719    1.0000 </r>
       <r>  -16.2385    1.0000 </r>
       <r>  -16.1924    1.0000 </r>
       <r>  -16.1666    1.0000 </r>
       <r>   -7.6808    1.0000 </r>
       <r>   -5.8261    1.0000 </r>
       <r>   -5.2286    1.0000 </r>
       <r>   -4.3131    1.0000 </r>
       <r>   -4.1527    1.0000 </r>
       <r>   -3.7707    1.0000 </r>
       <r>   -2.0614    1.0000 </r>
       <r>   -1.8410    1.0000 </r>
       <r>   -1.3882    1.0000 </r>
       <r>   -1.2455    1.0000 </r>
       <r>   -0.9369    1.0000 </r>
       <r>   -0.4983    1.0000 </r>
       <r>   -0.3567    1.0000 </r>
       <r>   -0.1476    1.0000 </r>
       <r>    0.0868    1.0000 </r>
       <r>    0.4556    1.0000 </r>
       <r>    0.7418    1.0000 </r>
       <r>    0.9068    1.0000 </r>
       <r>    9.2304    0.0000 </r>
       <r>   10.0926    0.0000 </r>
       <r>   10.5303    0.0000 </r>
       <r>   10.9157    0.0000 </r>
       <r>   11.2991    0.0000 </r>
       <r>   11.6760    0.0000 </r>
      </set>
      <set comment="kpoint 25">
       <r>  -17.8139    1.0000 </r>
       <r>  -17.3993    1.0000 </r>
       <r>  -16.8749    1.0000 </r>
       <r>  -16.2692    1.0000 </r>
       <r>  -16.2073    1.0000 </r>
       <r>  -16.1827    1.0000 </r>
       <r>   -7.1823    1.0000 </r>
       <r>   -6.1621    1.0000 </r>
       <r>   -5.3731    1.0000 </r>
       <r>   -4.2322    1.0000 </r>
       <r>   -3.9658    1.0000 </r>
       <r>   -3.8844    1.0000 </r>
       <r>   -2.1536    1.0000 </r>
       <r>   -1.9565    1.0000 </r>
       <r>   -1.4619    1.0000 </r>
       <r>   -1.0957    1.0000 </r>
       <r>   -0.8805    1.0000 </r>
       <r>   -0.6381    1.0000 </r>
       <r>   -0.1548    1.0000 </r>
       <r>   -0.0360    1.0000 </r>
       <r>    0.1913    1.0000 </r>
       <r>    0.3675    1.0000 </r>
       <r>    0.5571    1.0000 </r>
       <r>    0.7863    1.0000 </r>
       <r>    9.9210    0.0000 </r>
       <r>   10.4286    0.0000 </r>
       <r>   10.7258    0.0000 </r>
       <r>   11.1326    0.0000 </r>
       <r>   11.4483    0.0000 </r>
       <r>   11.6995    0.0000 </r>
      </set>
      <set comment="kpoint 26">
       <r>  -17.8161    1.0000 </r>
       <r>  -17.3923    1.0000 </r>
       <r>  -16.8827    1.0000 </r>
       <r>  -16.2664    1.0000 </r>
       <r>  -16.2063    1.0000 </r>
       <r>  -16.1834    1.0000 </r>
       <r>   -7.1831    1.0000 </r>
       <r>   -6.1636    1.0000 </r>
       <r>   -5.3709    1.0000 </r>
       <r>   -4.2410    1.0000 </r>
       <r>   -3.9686    1.0000 </r>
       <r>   -3.8671    1.0000 </r>
       <r>   -2.1476    1.0000 </r>
       <r>   -1.9621    1.0000 </r>
       <r>   -1.4690    1.0000 </r>
       <r>   -1.0937    1.0000 </r>
       <r>   -0.9278    1.0000 </r>
       <r>   -0.5894    1.0000 </r>
       <r>   -0.1604    1.0000 </r>
       <r>    0.0227    1.0000 </r>
       <r>    0.1858    1.0000 </r>
       <r>    0.2951    1.0000 </r>
       <r>    0.5359    1.0000 </r>
       <r>    0.8301    1.0000 </r>
       <r>    9.8641    0.0000 </r>
       <r>   10.5292    0.0000 </r>
       <r>   10.7973    0.0000 </r>
       <r>   11.1228    0.0000 </r>
       <r>   11.3080    0.0000 </r>
       <r>   11.6843    0.0000 </r>
      </set>
      <set comment="kpoint 27">
       <r>  -17.7804    1.0000 </r>
       <r>  -17.2635    1.0000 </r>
       <r>  -17.0439    1.0000 </r>
       <r>  -16.2770    1.0000 </r>
       <r>  -16.2196    1.0000 </r>
       <r>  -16.1919    1.0000 </r>
       <r>   -6.8681    1.0000 </r>
       <r>   -6.3836    1.0000 </r>
       <r>   -5.4814    1.0000 </r>
       <r>   -4.1823    1.0000 </r>
       <r>   -3.9258    1.0000 </r>
       <r>   -3.9248    1.0000 </r>
       <r>   -2.1858    1.0000 </r>
       <r>   -1.7457    1.0000 </r>
       <r>   -1.7302    1.0000 </r>
       <r>   -0.8877    1.0000 </r>
       <r>   -0.8640    1.0000 </r>
       <r>   -0.8575    1.0000 </r>
       <r>    0.0146    1.0000 </r>
       <r>    0.0312    1.0000 </r>
       <r>    0.1967    1.0000 </r>
       <r>    0.4198    1.0000 </r>
       <r>    0.4414    1.0000 </r>
       <r>    0.6483    1.0000 </r>
       <r>   10.1463    0.0000 </r>
       <r>   10.7001    0.0000 </r>
       <r>   10.9243    0.0000 </r>
       <r>   11.2107    0.0000 </r>
       <r>   11.3150    0.0000 </r>
       <r>   11.3828    0.0000 </r>
      </set>
     </set>
    </set>
   </array>
  </eigenvalues>
  <separator name="orbital magnetization" >
   <v name="MAGDIPOLOUT">      0.00000000      0.00000000      0.00000000</v>
  </separator>
  <dos>
   <i name="efermi">      1.18663888 </i>
   <total>
    <array>
     <dimension dim="1">gridpoints</dimension>
     <dimension dim="2">spin</dimension>
     <field>energy</field>
     <field>total</field>
     <field>integrated</field>
     <set>
      <set comment="spin 1">
       <r>   -20.3724     0.0000     0.0000 </r>
       <r>   -20.2567     0.0000     0.0000 </r>
       <r>   -20.1409     0.0000     0.0000 </r>
       <r>   -20.0251     0.0000     0.0000 </r>
       <r>   -19.9094     0.0000     0.0000 </r>
       <r>   -19.7936     0.0000     0.0000 </r>
       <r>   -19.6779     0.0000     0.0000 </r>
       <r>   -19.5621     0.0000     0.0000 </r>
       <r>   -19.4464     0.0000     0.0000 </r>
       <r>   -19.3306     0.0000     0.0000 </r>
       <r>   -19.2149     0.0000     0.0000 </r>
       <r>   -19.0991     0.0000     0.0000 </r>
       <r>   -18.9834     0.0000     0.0000 </r>
       <r>   -18.8676     0.0000     0.0000 </r>
       <r>   -18.7519     0.0000     0.0000 </r>
       <r>   -18.6361     0.0000     0.0000 </r>
       <r>   -18.5204     0.0000     0.0000 </r>
       <r>   -18.4046     0.0000     0.0000 </r>
       <r>   -18.2888     0.9105     0.0255 </r>
       <r>   -18.1731     1.6354     0.1741 </r>
       <r>   -18.0573     2.7732     0.4204 </r>
       <r>   -17.9416     4.7210     0.8716 </r>
       <r>   -17.8258     8.1576     1.6934 </r>
       <r>   -17.7101     0.3967     1.9964 </r>
       <r>   -17.5943     1.5085     2.1287 </r>
       <r>   -17.4786     3.2221     2.3801 </r>
       <r>   -17.3628     7.5633     3.2942 </r>
       <r>   -17.2471     2.0268     3.7377 </r>
       <r>   -17.1313     0.8892     3.8961 </r>
       <r>   -17.0156     0.5938     3.9720 </r>
       <r>   -16.8998     2.5074     4.0967 </r>
       <r>   -16.7841     7.8316     5.0026 </r>
       <r>   -16.6683     2.6431     5.4978 </r>
       <r>   -16.5525     1.5430     5.7356 </r>
       <r>   -16.4368     1.0151     5.8829 </r>
       <r>   -16.3210     0.5885     5.9743 </r>
       <r>   -16.2053    65.6065     8.8652 </r>
       <r>   -16.0895     0.0000    12.0000 </r>
       <r>   -15.9738     0.0000    12.0000 </r>
       <r>   -15.8580     0.0000    12.0000 </r>
       <r>   -15.7423     0.0000    12.0000 </r>
       <r>   -15.6265     0.0000    12.0000 </r>
       <r>   -15.5108     0.0000    12.0000 </r>
       <r>   -15.3950     0.0000    12.0000 </r>
       <r>   -15.2793     0.0000    12.0000 </r>
       <r>   -15.1635     0.0000    12.0000 </r>
       <r>   -15.0478     0.0000    12.0000 </r>
       <r>   -14.9320     0.0000    12.0000 </r>
       <r>   -14.8162     0.0000    12.0000 </r>
       <r>   -14.7005     0.0000    12.0000 </r>
       <r>   -14.5847     0.0000    12.0000 </r>
       <r>   -14.4690     0.0000    12.0000 </r>
       <r>   -14.3532     0.0000    12.0000 </r>
       <r>   -14.2375     0.0000    12.0000 </r>
       <r>   -14.1217     0.0000    12.0000 </r>
       <r>   -14.0060     0.0000    12.0000 </r>
       <r>   -13.8902     0.0000    12.0000 </r>
       <r>   -13.7745     0.0000    12.0000 </r>
       <r>   -13.6587     0.0000    12.0000 </r>
       <r>   -13.5430     0.0000    12.0000 </r>
       <r>   -13.4272     0.0000    12.0000 </r>
       <r>   -13.3115     0.0000    12.0000 </r>
       <r>   -13.1957     0.0000    12.0000 </r>
       <r>   -13.0799     0.0000    12.0000 </r>
       <r>   -12.9642     0.0000    12.0000 </r>
       <r>   -12.8484     0.0000    12.0000 </r>
       <r>   -12.7327     0.0000    12.0000 </r>
       <r>   -12.6169     0.0000    12.0000 </r>
       <r>   -12.5012     0.0000    12.0000 </r>
       <r>   -12.3854     0.0000    12.0000 </r>
       <r>   -12.2697     0.0000    12.0000 </r>
       <r>   -12.1539     0.0000    12.0000 </r>
       <r>   -12.0382     0.0000    12.0000 </r>
       <r>   -11.9224     0.0000    12.0000 </r>
       <r>   -11.8067     0.0000    12.0000 </r>
       <r>   -11.6909     0.0000    12.0000 </r>
       <r>   -11.5752     0.0000    12.0000 </r>
       <r>   -11.4594     0.0000    12.0000 </r>
       <r>   -11.3437     0.0000    12.0000 </r>
       <r>   -11.2279     0.0000    12.0000 </r>
       <r>   -11.1121     0.0000    12.0000 </r>
       <r>   -10.9964     0.0000    12.0000 </r>
       <r>   -10.8806     0.0000    12.0000 </r>
       <r>   -10.7649     0.0000    12.0000 </r>
       <r>   -10.6491     0.0000    12.0000 </r>
       <r>   -10.5334     0.0000    12.0000 </r>
       <r>   -10.4176     0.0000    12.0000 </r>
       <r>   -10.3019     0.0000    12.0000 </r>
       <r>   -10.1861     0.0000    12.0000 </r>
       <r>   -10.0704     0.0000    12.0000 </r>
       <r>    -9.9546     0.0000    12.0000 </r>
       <r>    -9.8389     0.0000    12.0000 </r>
       <r>    -9.7231     0.0000    12.0000 </r>
       <r>    -9.6074     0.0000    12.0000 </r>
       <r>    -9.4916     0.0000    12.0000 </r>
       <r>    -9.3758     0.0000    12.0000 </r>
       <r>    -9.2601     0.0000    12.0000 </r>
       <r>    -9.1443     0.0000    12.0000 </r>
       <r>    -9.0286     0.0000    12.0000 </r>
       <r>    -8.9128     0.0000    12.0000 </r>
       <r>    -8.7971     0.0000    12.0000 </r>
       <r>    -8.6813     0.0000    12.0000 </r>
       <r>    -8.5656     0.0000    12.0000 </r>
       <r>    -8.4498     0.0000    12.0000 </r>
       <r>    -8.3341     0.0000    12.0000 </r>
       <r>    -8.2183     0.0185    12.0001 </r>
       <r>    -8.1026     0.2884    12.0166 </r>
       <r>    -7.9868     0.4501    12.0637 </r>
       <r>    -7.8711     0.6584    12.1276 </r>
       <r>    -7.7553     0.8656    12.2164 </r>
       <r>    -7.6395     1.1771    12.3313 </r>
       <r>    -7.5238     1.6320    12.4926 </r>
       <r>    -7.4080     2.8295    12.7329 </r>
       <r>    -7.2923     9.0885    13.4419 </r>
       <r>    -7.1765     0.9636    13.8796 </r>
       <r>    -7.0608     0.5115    13.9627 </r>
       <r>    -6.9450     0.2713    14.0064 </r>
       <r>    -6.8293     0.2459    14.0330 </r>
       <r>    -6.7135     0.3873    14.0694 </r>
       <r>    -6.5978     0.5920    14.1246 </r>
       <r>    -6.4820     1.0022    14.2146 </r>
       <r>    -6.3663     1.6993    14.3661 </r>
       <r>    -6.2505     4.6398    14.6913 </r>
       <r>    -6.1348     3.3602    15.3053 </r>
       <r>    -6.0190     1.8837    15.6021 </r>
       <r>    -5.9032     1.1140    15.7685 </r>
       <r>    -5.7875     0.7537    15.8751 </r>
       <r>    -5.6717     0.4989    15.9467 </r>
       <r>    -5.5560     0.1959    15.9990 </r>
       <r>    -5.4402     1.0544    16.0357 </r>
       <r>    -5.3245     3.0058    16.2732 </r>
       <r>    -5.2087     3.0029    16.6657 </r>
       <r>    -5.0930     2.9041    17.0017 </r>
       <r>    -4.9772     2.4834    17.3233 </r>
       <r>    -4.8615     1.6951    17.5627 </r>
       <r>    -4.7457     1.2436    17.7317 </r>
       <r>    -4.6300     0.8924    17.8551 </r>
       <r>    -4.5142     0.7235    17.9406 </r>
       <r>    -4.3985     3.9324    18.1440 </r>
       <r>    -4.2827    10.6140    19.7795 </r>
       <r>    -4.1669     5.8692    20.7355 </r>
       <r>    -4.0512     5.9139    21.4821 </r>
       <r>    -3.9354     2.8505    22.0713 </r>
       <r>    -3.8197     8.3007    22.7232 </r>
       <r>    -3.7039     4.7406    23.5164 </r>
       <r>    -3.5882     2.1171    23.9110 </r>
       <r>    -3.4724     0.0105    24.0000 </r>
       <r>    -3.3567     0.0000    24.0000 </r>
       <r>    -3.2409     0.0000    24.0000 </r>
       <r>    -3.1252     0.0000    24.0000 </r>
       <r>    -3.0094     0.0000    24.0000 </r>
       <r>    -2.8937     0.0000    24.0000 </r>
       <r>    -2.7779     0.0000    24.0000 </r>
       <r>    -2.6622     0.0000    24.0000 </r>
       <r>    -2.5464     0.0000    24.0000 </r>
       <r>    -2.4307     0.0000    24.0000 </r>
       <r>    -2.3149     0.0000    24.0000 </r>
       <r>    -2.1991     0.0000    24.0000 </r>
       <r>    -2.0834    13.0656    24.7318 </r>
       <r>    -1.9676     5.4829    25.9483 </r>
       <r>    -1.8519     5.2980    26.5995 </r>
       <r>    -1.7361     6.7584    27.4859 </r>
       <r>    -1.6204     4.9754    28.1923 </r>
       <r>    -1.5046    10.6804    29.1818 </r>
       <r>    -1.3889     4.0645    29.8844 </r>
       <r>    -1.2731     2.1835    30.0828 </r>
       <r>    -1.1574    11.6414    31.2438 </r>
       <r>    -1.0416     2.3859    31.9051 </r>
       <r>    -0.9259    20.8124    32.9938 </r>
       <r>    -0.8101     1.6169    33.9018 </r>
       <r>    -0.6944     6.9293    34.2630 </r>
       <r>    -0.5786     7.1262    34.9980 </r>
       <r>    -0.4628    11.2666    36.1919 </r>
       <r>    -0.3471     5.8157    37.3705 </r>
       <r>    -0.2313     4.7060    37.9372 </r>
       <r>    -0.1156    11.4838    38.9880 </r>
       <r>     0.0002     5.1605    40.0179 </r>
       <r>     0.1159    14.2191    40.9453 </r>
       <r>     0.2317     0.0163    42.0000 </r>
       <r>     0.3474    12.1335    42.5376 </r>
       <r>     0.4632     3.5391    43.6572 </r>
       <r>     0.5789     4.3397    44.1650 </r>
       <r>     0.6947     6.9282    44.7949 </r>
       <r>     0.8104     9.5483    45.8670 </r>
       <r>     0.9262     7.7624    46.6153 </r>
       <r>     1.0419     7.2458    47.8668 </r>
       <r>     1.1577     0.0000    48.0000 </r>
       <r>     1.2735     0.0000    48.0000 </r>
       <r>     1.3892     0.0000    48.0000 </r>
       <r>     1.5050     0.0000    48.0000 </r>
       <r>     1.6207     0.0000    48.0000 </r>
       <r>     1.7365     0.0000    48.0000 </r>
       <r>     1.8522     0.0000    48.0000 </r>
       <r>     1.9680     0.0000    48.0000 </r>
       <r>     2.0837     0.0000    48.0000 </r>
       <r>     2.1995     0.0000    48.0000 </r>
       <r>     2.3152     0.0000    48.0000 </r>
       <r>     2.4310     0.0000    48.0000 </r>
       <r>     2.5467     0.0000    48.0000 </r>
       <r>     2.6625     0.0000    48.0000 </r>
       <r>     2.7782     0.0000    48.0000 </r>
       <r>     2.8940     0.0000    48.0000 </r>
       <r>     3.0098     0.0000    48.0000 </r>
       <r>     3.1255     0.0000    48.0000 </r>
       <r>     3.2413     0.0000    48.0000 </r>
       <r>     3.3570     0.0000    48.0000 </r>
       <r>     3.4728     0.0000    48.0000 </r>
       <r>     3.5885     0.0000    48.0000 </r>
       <r>     3.7043     0.0000    48.0000 </r>
       <r>     3.8200     0.0000    48.0000 </r>
       <r>     3.9358     0.0000    48.0000 </r>
       <r>     4.0515     0.0000    48.0000 </r>
       <r>     4.1673     0.0000    48.0000 </r>
       <r>     4.2830     0.0000    48.0000 </r>
       <r>     4.3988     0.0000    48.0000 </r>
       <r>     4.5145     0.0000    48.0000 </r>
       <r>     4.6303     0.0000    48.0000 </r>
       <r>     4.7461     0.0000    48.0000 </r>
       <r>     4.8618     0.0000    48.0000 </r>
       <r>     4.9776     0.0000    48.0000 </r>
       <r>     5.0933     0.0000    48.0000 </r>
       <r>     5.2091     0.0000    48.0000 </r>
       <r>     5.3248     0.0000    48.0000 </r>
       <r>     5.4406     0.0000    48.0000 </r>
       <r>     5.5563     0.0000    48.0000 </r>
       <r>     5.6721     0.0000    48.0000 </r>
       <r>     5.7878     0.0000    48.0000 </r>
       <r>     5.9036     0.0000    48.0000 </r>
       <r>     6.0193     0.0000    48.0000 </r>
       <r>     6.1351     0.0000    48.0000 </r>
       <r>     6.2508     0.0000    48.0000 </r>
       <r>     6.3666     0.0000    48.0000 </r>
       <r>     6.4824     0.0000    48.0000 </r>
       <r>     6.5981     0.0000    48.0000 </r>
       <r>     6.7139     0.0000    48.0000 </r>
       <r>     6.8296     0.0000    48.0000 </r>
       <r>     6.9454     0.0000    48.0000 </r>
       <r>     7.0611     0.0000    48.0000 </r>
       <r>     7.1769     0.0032    48.0001 </r>
       <r>     7.2926     0.0299    48.0017 </r>
       <r>     7.4084     0.0834    48.0080 </r>
       <r>     7.5241     0.1649    48.0221 </r>
       <r>     7.6399     0.2321    48.0458 </r>
       <r>     7.7556     0.2694    48.0750 </r>
       <r>     7.8714     0.2886    48.1075 </r>
       <r>     7.9871     0.3296    48.1430 </r>
       <r>     8.1029     0.3773    48.1839 </r>
       <r>     8.2186     0.4277    48.2305 </r>
       <r>     8.3344     0.4806    48.2830 </r>
       <r>     8.4502     0.5356    48.3418 </r>
       <r>     8.5659     0.6543    48.4093 </r>
       <r>     8.6817     0.8087    48.4940 </r>
       <r>     8.7974     0.8117    48.5913 </r>
       <r>     8.9132     0.8726    48.6887 </r>
       <r>     9.0289     0.9356    48.7934 </r>
       <r>     9.1447     1.0006    48.9054 </r>
       <r>     9.2604     1.0673    49.0251 </r>
       <r>     9.3762     1.5283    49.1823 </r>
       <r>     9.4919     1.3730    49.3550 </r>
       <r>     9.6077     1.2449    49.5039 </r>
       <r>     9.7234     1.3980    49.6528 </r>
       <r>     9.8392     1.4825    49.8247 </r>
       <r>     9.9549     1.7941    50.0371 </r>
       <r>    10.0707     1.1010    50.1901 </r>
       <r>    10.1865     1.9431    50.3420 </r>
       <r>    10.3022     5.8690    50.7419 </r>
       <r>    10.4180     6.8953    51.8392 </r>
       <r>    10.5337     4.1273    52.3406 </r>
       <r>    10.6495     8.2356    53.0748 </r>
       <r>    10.7652     6.6912    53.9648 </r>
       <r>    10.8810     2.5596    54.4562 </r>
       <r>    10.9967     4.0614    54.7940 </r>
       <r>    11.1125     7.8809    55.5162 </r>
       <r>    11.2282     4.5159    56.0803 </r>
       <r>    11.3440     6.6576    56.7679 </r>
       <r>    11.4597     7.1295    57.5840 </r>
       <r>    11.5755     1.7572    58.0471 </r>
       <r>    11.6912    16.9826    58.6138 </r>
       <r>    11.8070     2.3196    59.6340 </r>
       <r>    11.9228     0.9331    59.7914 </r>
       <r>    12.0385     0.6312    59.8778 </r>
       <r>    12.1543     0.4755    59.9426 </r>
       <r>    12.2700     0.3066    59.9873 </r>
       <r>    12.3858     0.0000    60.0000 </r>
       <r>    12.5015     0.0000    60.0000 </r>
       <r>    12.6173     0.0000    60.0000 </r>
       <r>    12.7330     0.0000    60.0000 </r>
       <r>    12.8488     0.0000    60.0000 </r>
       <r>    12.9645     0.0000    60.0000 </r>
       <r>    13.0803     0.0000    60.0000 </r>
       <r>    13.1960     0.0000    60.0000 </r>
       <r>    13.3118     0.0000    60.0000 </r>
       <r>    13.4275     0.0000    60.0000 </r>
       <r>    13.5433     0.0000    60.0000 </r>
       <r>    13.6591     0.0000    60.0000 </r>
       <r>    13.7748     0.0000    60.0000 </r>
       <r>    13.8906     0.0000    60.0000 </r>
       <r>    14.0063     0.0000    60.0000 </r>
       <r>    14.1221     0.0000    60.0000 </r>
       <r>    14.2378     0.0000    60.0000 </r>
       <r>    14.3536     0.0000    60.0000 </r>
      </set>
     </set>
    </array>
   </total>
  </dos>
 </calculation>
 <structure name="finalpos" >
  <crystal>
   <varray name="basis" >
    <v>       4.91380000       0.00000000       0.00000000 </v>
    <v>      -2.45690000       4.25547563       0.00000000 </v>
    <v>       0.00000000       0.00000000       5.40520000 </v>
   </varray>
   <i name="volume">    113.02573808 </i>
   <varray name="rec_basis" >
    <v>       0.20350849       0.11749568       0.00000000 </v>
    <v>       0.00000000       0.23499136       0.00000000 </v>
    <v>       0.00000000       0.00000000       0.18500703 </v>
   </varray>
  </crystal>
  <varray name="positions" >
   <v>       0.46980000       0.00000000       0.66666667 </v>
   <v>       0.53020000       0.53020000       0.00000000 </v>
   <v>       0.00000000       0.46980000       0.33333333 </v>
   <v>       0.41450000       0.26620000       0.78560000 </v>
   <v>       0.58550000       0.85170000       0.88106667 </v>
   <v>       0.14830000       0.73380000       0.54773333 </v>
   <v>       0.26620000       0.41450000       0.21440000 </v>
   <v>       0.85170000       0.58550000       0.11893333 </v>
   <v>       0.73380000       0.14830000       0.45226667 </v>
  </varray>
 </structure>
</modeling>
