unknown system                          
   1.00000000000000     
     4.913800    0.000000    0.000000
    -2.456900    4.255476    0.000000
     0.000000    0.000000    5.405200
   Si   O 
     3     6
Direct
  0.469800  0.000000  0.666667
  0.530200  0.530200  0.000000
  0.000000  0.469800  0.333333
  0.414500  0.266200  0.785600
  0.585500  0.851700  0.881067
  0.148300  0.733800  0.547733
  0.266200  0.414500  0.214400
  0.851700  0.585500  0.118933
  0.733800  0.148300  0.452267
 
   64   64   72
  1.4720      1.4261      1.4129      1.4244      1.4563      1.5069      1.5749      1.6589      1.7573      1.8684    
  1.9904      2.1210      2.2569      2.3944      2.5296      2.6592      2.7813      2.8948      3.0000      3.0993    
  3.1991      3.3120      3.4569      3.6571      3.9371      4.3217      4.8393      5.5270      6.4363      7.6314    
  9.1830      11.156      13.600      16.539      19.968      23.847      28.089      32.540      36.966      41.053    
  44.435      46.753      47.731      47.237      45.318      42.192      38.191      33.691      29.041      24.523    
  20.332      16.588      13.350      10.632      8.4151      6.6509      5.2741      4.2118      3.3963      2.7731    
  2.3032      1.9593      1.7197      1.5640      1.4261      1.3789      1.3672      1.3832      1.4231      1.4858    
  1.5706      1.6763      1.8013      1.9433      2.1000      2.2684      2.4444      2.6228      2.7976      2.9633    
  3.1159      3.2527      3.3724      3.4745      3.5613      3.6402      3.7254      3.8370      3.9986      4.2346    
  4.5695      5.0308      5.6530      6.4810      7.5689      8.9722      10.738      12.894      15.443      18.353    
  21.561      24.957      28.384      31.633      34.453      36.585      37.803      37.964      37.036      35.113    
  32.391      29.122      25.570      21.971      18.515      15.335      12.515      10.096      8.0834      6.4519    
  5.1565      4.1412      3.3509      2.7394      2.2727      1.9267      1.6825      1.5218      1.4129      1.3672    
  1.3588      1.3802      1.4283      1.5025      1.6030      1.7292      1.8796      2.0520      2.2436      2.4509    
  2.6694      2.8928      3.1135      3.3236      3.5164      3.6867      3.8307      3.9458      4.0314      4.0909    
  4.1337      4.1758      4.2384      4.3456      4.5220      4.7916      5.1803      5.7186      6.4442      7.3999    
  8.6269      10.156      11.997      14.135      16.526      19.090      21.717      24.262      26.551      28.402    
  29.640      30.136      29.830      28.743      26.976      24.687      22.061      19.285      16.520      13.899    
  11.514      9.4211      7.6432      6.1738      4.9852      4.0376      3.2886      2.7017      2.2488      1.9098    
  1.6682      1.5081      1.4243      1.3832      1.3802      1.4085      1.4655      1.5514      1.6671      1.8130    
  1.9881      2.1904      2.4171      2.6647      2.9281      3.2006      3.4735      3.7369      3.9810      4.1972    
  4.3779      4.5179      4.6141      4.6672      4.6829      4.6729      4.6551      4.6524      4.6897      4.7919    
  4.9825      5.2847      5.7246      6.3321      7.1391      8.1735      9.4520      10.972      12.707      14.605    
  16.586      18.548      20.368      21.914      23.056      23.688      23.741      23.203      22.116      20.570    
  18.690      16.611      14.464      12.365      10.405      8.6443      7.1161      5.8270      4.7637      3.9001    
  3.2063      2.6551      2.2254      1.9012      1.6690      1.5149      1.4563      1.4232      1.4283      1.4655    
  1.5327      1.6309      1.7620      1.9270      2.1261      2.3576      2.6191      2.9075      3.2177      3.5430    
  3.8740      4.1995      4.5067      4.7828      5.0158      5.1960      5.3172      5.3775      5.3798      5.3327    
  5.2508      5.1549      5.0701      5.0229      5.0383      5.1385      5.3439      5.6756      6.1558      6.8066    
  7.6444      8.6745      9.8849      11.244      12.697      14.174      15.585      16.835      17.826      18.471    
  18.710      18.513      17.890      16.887      15.583      14.071      12.451      10.818      9.2518      7.8102    
  6.5304      5.4276      4.4993      3.7310      3.1032      2.5976      2.1994      1.8973      1.6807      1.5380    
  1.5071      1.4859      1.5025      1.5513      1.6309      1.7428      1.8896      2.0737      2.2958      2.5555    
  2.8510      3.1797      3.5377      3.9185      4.3129      4.7087      5.0906      5.4416      5.7444      5.9838    
  6.1485      6.2328      6.2366      6.1660      6.0335      5.8583      5.6655      5.4830      5.3386      5.2568    
  5.2583      5.3604      5.5793      5.9301      6.4259      7.0736      7.8699      8.7970      9.8212      10.893    
  11.950      12.923      13.738      14.328      14.639      14.638      14.317      13.697      12.822      11.754    
  10.566      9.3307      8.1120      6.9622      5.9170      4.9958      4.2039      3.5358      2.9810      2.5285    
  2.1693      1.8961      1.7011      1.5751      1.5752      1.5707      1.6030      1.6671      1.7619      1.8896    
  2.0535      2.2569      2.5016      2.7883      3.1164      3.4845      3.8898      4.3275      4.7892      5.2622    
  5.7294      6.1701      6.5614      6.8814      7.1120      7.2415      7.2653      7.1867      7.0167      6.7741    
  6.4845      6.1775      5.8837      5.6316      5.4452      5.3433      5.3401      5.4466      5.6717      6.0206    
  6.4932      7.0799      7.7596      8.4991      9.2554      9.9778      10.613      11.109      11.421      11.517    
  11.381      11.019      10.452      9.7195      8.8708      7.9587      7.0335      6.1379      5.3040      4.5519    
  3.8913      3.3232      2.8442      2.4495      2.1348      1.8962      1.7286      1.6246      1.6590      1.6762    
  1.7290      1.8129      1.9270      2.0737      2.2569      2.4808      2.7482      3.0613      3.4207      3.8267    
  4.2783      4.7727      5.3033      5.8582      6.4193      6.9627      7.4603      7.8832      8.2048      8.4052    
  8.4728      8.4063      8.2148      7.9174      7.5409      7.1175      6.6812      6.2650      5.8981      5.6034    
  5.3973      5.2905      5.2895      5.3973      5.6133      5.9314      6.3377      6.8098      7.3171      7.8232    
  8.2887      8.6743      8.9449      9.0721      9.0385      8.8393      8.4837      7.9936      7.4004      6.7409    
  6.0522      5.3680      4.7155      4.1140      3.5746      3.1023      2.6987      2.3637      2.0971      1.8974    
  1.7618      1.6848      1.7571      1.8009      1.8793      1.9881      2.1261      2.2958      2.5016      2.7483    
  3.0398      3.3794      3.7693      4.2118      4.7081      5.2578      5.8569      6.4954      7.1556      7.8116    
  8.4310      8.9777      9.4162      9.7162      9.8566      9.8288      9.6377      9.3017      8.8496      8.3170    
  7.7427      7.1652      6.6198      6.1353      5.7327      5.4255      5.2207      5.1204      5.1229      5.2226    
  5.4092      5.6662      5.9709      6.2959      6.6111      6.8867      7.0952      7.2133      7.2245      7.1199    
  6.9005      6.5768      6.1676      5.6969      5.1908      4.6749      4.1716      3.6980      3.2656      2.8816    
  2.5504      2.2751      2.0580      1.9002      1.8003      1.7545      1.8679      1.9428      2.0518      2.1905    
  2.3578      2.5555      2.7883      3.0613      3.3794      3.7469      4.1676      4.6455      5.1844      5.7869    
  6.4523      7.1733      7.9341      8.7085      9.4610      10.149      10.729      11.158      11.404      11.447    
  11.285      10.934      10.422      9.7890      9.0807      8.3426      7.6174      6.9413      6.3417      5.8363    
  5.4349      5.1406      4.9517      4.8626      4.8642      4.9428      5.0802      5.2543      5.4406      5.6148    
  5.7548      5.8418      5.8610      5.8031      5.6645      5.4485      5.1651      4.8291      4.4586      4.0719    
  3.6867      3.3177      2.9760      2.6698      2.4053      2.1875      2.0203      1.9058      1.8442      1.8331    
  1.9900      2.0998      2.2437      2.4175      2.6194      2.8510      3.1163      3.4206      3.7694      4.1677    
  4.6206      5.1336      5.7131      6.3649      7.0923      7.8920      8.7514      9.6457      10.538      11.381    
  12.122      12.708      13.092      13.242      13.145      12.808      12.260      11.542      10.706      9.8076    
  8.8993      8.0268      7.2251      6.5182      5.9195      5.4343      5.0619      4.7974      4.6320      4.5534    
  4.5457      4.5896      4.6637      4.7465      4.8186      4.8636      4.8688      4.8254      4.7281      4.5762    
  4.3738      4.1295      3.8552      3.5641      3.2696      2.9836      2.7164      2.4764      2.2710      2.1063    
  1.9871      1.9161      1.8940      1.9198      2.1209      2.2686      2.4514      2.6651      2.9076      3.1796    
  3.4843      3.8265      4.2117      4.6455      5.1337      5.6829      6.3016      6.9988      7.7823      8.6540    
  9.6062      10.617      11.651      12.657      13.576      14.342      14.895      15.189      15.195      14.911    
  14.357      13.576      12.625      11.570      10.476      9.3996      8.3874      7.4713      6.6702      5.9921    
  5.4374      5.0013      4.6756      4.4489      4.3067      4.2313      4.2027      4.2005      4.2059      4.2034    
  4.1811      4.1306      4.0465      3.9266      3.7716      3.5857      3.3763      3.1528      2.9252      2.7032    
  2.4955      2.3103      2.1555      2.0378      1.9625      1.9327      1.9498      2.0133      2.2571      2.4447    
  2.6699      2.9283      3.2175      3.5372      3.8896      4.2783      4.7081      5.1844      5.7131      6.3016    
  6.9596      7.6990      8.5321      9.4668      10.502      11.622      12.793      13.964      15.069      16.034    
  16.784      17.256      17.407      17.216      16.695      15.883      14.839      13.638      12.358      11.071    
  9.8370      8.7003      7.6875      6.8110      6.0719      5.4647      4.9805      4.6083      4.3347      4.1432    
  4.0148      3.9292      3.8671      3.8125      3.7530      3.6801      3.5886      3.4761      3.3421      3.1882    
  3.0186      2.8396      2.6586      2.4833      2.3211      2.1796      2.0663      1.9880      1.9504      1.9574    
  2.0110      2.1115      2.3945      2.6228      2.8928      3.2004      3.5425      3.9179      4.3273      4.7729    
  5.2580      5.7869      6.3649      6.9989      7.6991      8.4795      9.3565      10.345      11.450      12.664    
  13.961      15.290      16.584      17.759      18.728      19.412      19.745      19.692      19.249      18.445    
  17.339      16.011      14.553      13.053      11.588      10.216      8.9785      7.8931      6.9637      6.1838    
  5.5421      5.0258      4.6212      4.3130      4.0833      3.9121      3.7795      3.6676      3.5629      3.4559    
  3.3411      3.2162      3.0808      2.9359      2.7839      2.6289      2.4761      2.3313      2.2007      2.0909    
  2.0091      1.9616      1.9543      1.9917      2.0771      2.2116      2.5292      2.7973      3.1131      3.4731    
  3.8737      4.3127      4.7892      5.3037      5.8573      6.4523      7.0921      7.7822      8.5322      9.3566    
  10.275      11.307      12.469      13.760      15.163      16.634      18.107      19.492      20.693      21.612    
  22.166      22.295      21.978      21.229      20.103      18.681      17.064      15.356      13.655      12.037    
  10.559      9.2495      8.1187      7.1600      6.3591      5.6995      5.1650      4.7394      4.4058      4.1454    
  3.9376      3.7631      3.6061      3.4556      3.3050      3.1516      2.9954      2.8381      2.6821      2.5304    
  2.3868      2.2557      2.1419      2.0507      1.9887      1.9621      1.9766      2.0371      2.1481      2.3121    
  2.6586      2.9632      3.3235      3.7367      4.1996      4.7090      5.2625      5.8585      6.4957      7.1733    
  7.8917      8.6538      9.4669      10.345      11.307      12.380      13.584      14.932      16.416      18.002    
  19.630      21.211      22.641      23.807      24.608      24.960      24.819      24.180      23.086      21.615    
  19.874      17.980      16.050      14.181      12.449      10.900      9.5526      8.4031      7.4361      6.6310    
  5.9669      5.4244      4.9858      4.6326      4.3448      4.1021      3.8864      3.6845      3.4880      3.2934    
  3.1006      2.9121      2.7310      2.5609      2.4054      2.2684      2.1538      2.0660      2.0104      1.9930    
  2.0195      2.0951      2.2247      2.4121      2.7812      3.1166      3.5170      3.9811      4.5070      5.0912    
  5.7299      6.4192      7.1554      7.9339      8.7511      9.6059      10.502      11.450      12.469      13.584    
  14.824      16.209      17.744      19.409      21.154      22.897      24.532      25.939      26.997      27.602    
  27.681      27.209      26.209      24.750      22.937      20.898      18.765      16.657      14.670      12.869    
  11.289      9.9327      8.7875      7.8297      7.0334      6.3743      5.8307      5.3829      5.0111      4.6945    
  4.4136      4.1526      3.9014      3.6548      3.4121      3.1762      2.9512      2.7419      2.5524      2.3873    
  2.2510      2.1476      2.0819      2.0595      2.0864      2.1676      2.3080      2.5117      2.8954      3.2539    
  3.6876      4.1972      4.7826      5.4418      6.1703      6.9623      7.8109      8.7082      9.6457      10.617    
  11.622      12.665      13.760      14.932      16.209      17.619      19.177      20.879      22.689      24.541    
  26.335      27.950      29.253      30.120      30.453      30.199      29.356      27.979      26.166      24.045    
  21.761      19.448      17.223      15.174      13.351      11.775      10.438      9.3170      8.3832      7.6059    
  6.9580      6.4158      5.9576      5.5621      5.2087      4.8800      4.5639      4.2537      3.9479      3.6492    
  3.3630      3.0951      2.8507      2.6353      2.4544      2.3132      2.2171      2.1720      2.1839      2.2584    
  2.3996      2.6111      3.0009      3.3733      3.8311      4.3774      5.0150      5.7441      6.5614      7.4599    
  8.4303      9.4608      10.538      11.652      12.793      13.961      15.163      16.416      17.744      19.177    
  20.738      22.436      24.255      26.148      28.033      29.797      31.304      32.417      33.015      33.014    
  32.386      31.163      29.429      27.309      24.948      22.495      20.080      17.808      15.754      13.955    
  12.419      11.127      10.050      9.1531      8.4026      7.7685      7.2246      6.7472      6.3143      5.9074    
  5.5132      5.1241      4.7381      4.3582      3.9910      3.6440      3.3239      3.0367      2.7889      2.5869    
  2.4375      2.3478      2.3252      2.3759      2.5040      2.7117      3.0999      3.4744      3.9453      4.5170    
  5.1951      5.9835      6.8815      7.8832      8.9774      10.149      11.382      12.658      13.964      15.290    
  16.634      18.002      19.409      20.879      22.436      24.100      25.875      27.737      29.630      31.460    
  33.104      34.418      35.263      35.528      35.154      34.146      32.568      30.536      28.192      25.687    
  23.159      20.729      18.486      16.488      14.762      13.301      12.082      11.068      10.220      9.5002    
  8.8762      8.3185      7.8020      7.3065      6.8179      6.3292      5.8393      5.3525      4.8774      4.4240    
  4.0019      3.6185      3.2805      2.9946      2.7685      2.6108      2.5305      2.5356      2.6311      2.8191    
  3.1992      3.5605      4.0303      4.6134      5.3171      6.1488      7.1126      8.2053      9.4164      10.729    
  12.123      13.576      15.069      16.583      18.106      19.630      21.154      22.689      24.255      25.875    
  27.567      29.333      31.148      32.951      34.634      36.064      37.099      37.610      37.509      36.768    
  35.421      33.562      31.328      28.871      26.334      23.840      21.490      19.357      17.482      15.880    
  14.535      13.416      12.482      11.690      10.998      10.369      9.7715      9.1812      8.5829      7.9705    
  7.3457      6.7166      6.0954      5.4968      4.9349      4.4205      3.9616      3.5650      3.2376      2.9875    
  2.8248      2.7592      2.7983      2.9449      3.3118      3.6393      4.0901      4.6672      5.3783      6.2337    
  7.2421      8.4055      9.7163      11.158      12.708      14.341      16.033      17.758      19.492      21.211    
  22.897      24.541      26.148      27.737      29.333      30.960      32.621      34.275      35.850      37.247    
  38.347      39.024      39.174      38.736      37.709      36.150      34.163      31.878      29.444      27.004    
  24.662      22.497      20.561      18.881      17.457      16.266      15.272      14.429      13.690      13.008    
  12.341      11.659      10.942      10.184      9.3909      8.5757      7.7585      6.9613      6.2056      5.5088    
  4.8834      4.3373      3.8762      3.5060      3.2348      3.0724      3.0282      3.1077      3.4568      3.7249    
  4.1335      4.6835      5.3811      6.2374      7.2652      8.4723      9.8563      11.403      13.092      14.895    
  16.784      18.728      20.693      22.641      24.532      26.335      28.033      29.630      31.148      32.621    
  34.049      35.419      36.709      37.880      38.858      39.549      39.852      39.687      39.022      37.874    
  36.306      34.406      32.283      30.058      27.860      25.798      23.929      22.282      20.866      19.669    
  18.663      17.809      17.055      16.348      15.636      14.878      14.046      13.129      12.137      11.091    
  10.019      8.9570      7.9364      6.9863      6.1276      5.3732      4.7298      4.2005      3.7890      3.5015    
  3.3463      3.3304      3.6571      3.8370      4.1760      4.6736      5.3336      6.1662      7.1858      8.4051    
  9.8282      11.447      13.242      15.188      17.257      19.412      21.613      23.808      25.939      27.950    
  29.796      31.460      32.951      34.275      35.418      36.392      37.229      37.957      38.578      39.058    
  39.331      39.325      38.987      38.299      37.279      35.969      34.422      32.705      30.904      29.122    
  27.472      26.005      24.728      23.634      22.702      21.900      21.183      20.496      19.778      18.974    
  18.045      16.972      15.762      14.443      13.059      11.657      10.287      8.9940      7.8129      6.7672    
  5.8690      5.1215      4.5237      4.0751      3.7783      3.6378      3.9371      3.9988      4.2386      4.6554    
  5.2509      6.0330      7.0155      8.2138      9.6376      11.286      13.145      15.195      17.407      19.746    
  22.166      24.607      26.997      29.253      31.304      33.104      34.635      35.850      36.709      37.229    
  37.480      37.561      37.564      37.550      37.528      37.469      37.327      37.063      36.654      36.088    
  35.356      34.457      33.405      32.243      31.050      29.934      28.959      28.114      27.381      26.736    
  26.140      25.541      24.877      24.080      23.093      21.883      20.451      18.829      17.075      15.257    
  13.445      11.705      10.093      8.6492      7.3973      6.3461      5.4932      4.8311      4.3528      4.0550    
  4.3216      4.2348      4.3458      4.6522      5.1544      5.8578      6.7735      7.9171      9.3023      10.935    
  12.809      14.911      17.216      19.693      22.295      24.960      27.601      30.119      32.417      34.418    
  36.065      37.247      37.880      37.957      37.560      36.842      35.986      35.172      34.525      34.108    
  33.924      33.941      34.110      34.367      34.635      34.829      34.874      34.725      34.385      33.916    
  33.427      33.002      32.630      32.286      31.939      31.542      31.031      30.326      29.351      28.051    
  26.412      24.468      22.290      19.972      17.616      15.314      13.147      11.179      9.4509      7.9833    
  6.7787      5.8259      5.1083      4.6105      4.8390      4.5697      4.5222      4.6895      5.0695      5.6651    
  6.4846      7.5414      8.8505      10.423      12.260      14.356      16.695      19.249      21.978      24.818    
  27.681      30.453      33.015      35.263      37.099      38.347      38.859      38.578      37.564      35.986    
  34.105      32.219      30.602      29.455      28.887      28.920      29.510      30.559      31.921      33.420    
  34.868      36.108      37.036      37.631      37.958      38.146      38.312      38.448      38.526      38.499    
  38.298      37.828      36.986      35.687      33.891      31.623      28.970      26.060      23.037      20.036    
  17.172      14.535      12.189      10.169      8.4899      7.1418      6.1023      5.3434      5.5268      5.0307    
  4.7918      4.7920      5.0226      5.4829      6.1780      7.1183      8.3175      9.7890      11.541      13.575    
  15.882      18.445      21.230      24.180      27.209      30.199      33.015      35.528      37.609      39.024    
  39.549      39.058      37.550      35.172      32.219      29.089      26.211      23.962      22.606      22.279    
  22.993      24.654      27.070      29.971      33.048      35.998      38.579      40.653      42.207      43.341    
  44.237      45.043      45.754      46.320      46.656      46.642      46.136      45.004      43.163      40.615    
  37.454      33.850      30.009      26.133      22.391      18.911      15.782      13.055      10.757      8.8842    
  7.4140      6.3088      6.4362      5.6528      5.1804      4.9827      5.0382      5.3385      5.8841      6.6818    
  7.7427      9.0799      10.705      12.625      14.839      17.339      20.103      23.086      26.209      29.357    
  32.387      35.155      37.509      39.173      39.852      39.331      37.528      34.525      30.602      26.211    
  21.914      18.269      15.737      14.618      15.043      16.974      20.221      24.453      29.241      34.117    
  38.665      42.589      45.759      48.222      50.159      51.822      53.377      54.790      55.952      56.698    
  56.828      56.134      54.465      51.767      48.125      43.746      38.918      33.944      29.083      24.531    
  20.413      16.798      13.717      11.172      9.1402      7.5799      7.6315      6.4808      5.7185      5.2849    
  5.1386      5.2567      5.6317      6.2653      7.1650      8.3417      9.8068      11.570      13.639      16.012    
  18.681      21.615      24.749      27.979      31.163      34.146      36.768      38.735      39.687      39.325    
  37.469      34.108      29.455      23.962      18.269      13.097      9.1055      6.7974      6.4678      8.2006    
  11.870      17.146      23.517      30.363      37.063      43.118      48.236      52.369      55.683      58.472    
  61.051      63.547      65.842      67.713      68.872      69.011      67.865      65.288      61.312      56.159    
  50.205      43.886      37.607      31.678      26.297      21.562      17.505      14.122      11.384      9.2415    
  9.1831      7.5688      6.4440      5.7247      5.3441      5.2582      5.4450      5.8981      6.6197      7.6169    
  8.8991      10.476      12.359      14.554      17.064      19.873      22.936      26.165      29.428      32.568    
  35.421      37.709      39.022      38.987      37.327      33.924      28.887      22.606      15.737      9.1055    
  3.5503     -.22170     -1.7200     -.69529      2.8556      8.6781      16.258      24.872      33.707      42.026    
  49.319      55.393      60.359      64.544      68.349      72.096      75.783      79.136      81.765      83.224    
  83.096      81.082      77.104      71.346      64.244      56.385      48.370      40.698      33.699      27.538    
  22.262      17.846      14.240      11.378      11.157      8.9723      7.3997      6.3321      5.6758      5.3605    
  5.3431      5.6032      6.1353      6.9413      8.0270      9.4003      11.072      13.053      15.355      17.979    
  20.898      24.046      27.309      30.536      33.562      36.151      37.875      38.299      37.064      33.941    
  28.920      22.278      14.618      6.7973     -.22193     -5.5500     -8.4984     -8.6307     -5.7736     -.36747E-01
  8.1550      18.067      28.755      39.250      48.786      56.956      63.762      69.530      74.743      79.850    
  85.069      90.169      94.661      97.945      99.413      98.562      95.128      89.174      81.129      71.702    
  61.719      51.939      42.914      34.948      28.137      22.449      17.791      14.061      13.600      10.738    
  8.6269      7.1389      6.1559      5.5795      5.3400      5.3971      5.7328      6.3419      7.2253      8.3876    
  9.8372      11.587      13.654      16.048      18.765      21.762      24.949      28.193      31.329      34.163    
  36.306      37.279      36.654      34.110      29.510      22.993      15.043      6.4680     -1.7202     -8.4987    
 -13.000     -14.601     -12.941     -7.9445     0.12847      10.640      22.619      34.931      46.552      56.812    
  65.527      72.963      79.657      86.182      92.927      99.859      106.45      111.97      115.58      116.56    
  114.39      108.90      100.42      89.691      77.736      65.613      54.188      44.005      35.288      28.031    
  22.103      17.343      16.539      12.895      10.156      8.1733      6.8064      5.9303      5.4467      5.2903    
  5.4255      5.8366      6.5184      7.4711      8.6999      10.216      12.037      14.181      16.657      19.449    
  22.496      25.687      28.871      31.878      34.406      35.968      36.087      34.367      30.559      24.654    
  16.974      8.2011     -.69512     -8.6311     -14.601     -17.807     -17.705     -14.022     -6.8112      3.4742    
  15.956      29.450      42.733      54.860      65.398      74.470      82.604      90.477      98.633      107.26    
  115.96      123.88      130.03      133.43      133.27      129.10      120.98      109.58      96.001      81.586    
  67.565      54.826      43.831      34.675      27.223      21.252      19.968      15.443      11.997      9.4518    
  7.6440      6.4259      5.6720      5.2893      5.2204      5.4351      5.9199      6.6699      7.6868      8.9783    
  10.559      12.450      14.671      17.224      20.080      23.159      26.333      29.444      32.284      34.421    
  35.355      34.635      31.922      27.070      20.220      11.871      2.8561     -5.7737     -12.941     -17.705    
 -19.346     -17.401     -11.703     -2.4727      9.6052      23.427      37.685      51.212      63.295      73.832    
  83.256      92.288      101.62      111.62      122.14      132.36      141.15      147.37      149.93      147.93    
  141.09      129.88      115.43      99.184      82.703      67.289      53.752      42.400      33.164      25.787    
  23.847      18.353      14.136      10.972      8.6740      7.0734      6.0211      5.3975      5.1199      5.1404    
  5.4348      5.9923      6.8103      7.8928      9.2503      10.901      12.870      15.174      17.808      20.728    
  23.839      27.003      30.058      32.706      34.457      34.829      33.421      29.972      24.453      17.146    
  8.6783     -.36588E-01 -7.9447     -14.022     -17.400     -17.431     -13.734     -6.2847      4.4889      17.676    
  32.023      46.243      59.376      71.049      81.506      91.419      101.57      112.51      124.34      136.42    
  147.62      156.71      162.39      163.35      158.80      148.79      134.35      117.11      98.739      80.887    
  64.790      51.079      39.859      30.900      28.089      21.560      16.526      12.708      9.8847      7.8693    
  6.4935      5.6139      5.1227      4.9511      5.0621      5.4380      6.0716      6.9632      8.1191      9.5534    
  11.288      13.350      15.754      18.486      21.490      24.662      27.860      30.904      33.405      34.874    
  34.869      33.049      29.240      23.516      16.258      8.1553     0.12821     -6.8116     -11.702     -13.733    
 -12.322     -7.1962      1.4924      13.102      26.558      40.589      54.080      66.391      77.512      87.963    
  98.525      109.90      122.39      135.67      148.69      160.23      168.93      173.22      171.78      164.13    
  150.87      133.60      114.28      94.663      76.345      60.365      47.109      36.469      32.541      24.956    
  19.090      14.605      11.244      8.7964      7.0797      5.9320      5.2229      4.8620      4.7971      5.0019    
  5.4649      6.1833      7.1599      8.4036      9.9324      11.773      13.954      16.489      19.358      22.497    
  25.799      29.122      32.243      34.724      36.108      35.998      34.117      30.362      24.872      18.068    
  10.640      3.4734     -2.4731     -6.2839     -7.1954     -4.7018      1.3292      10.561      22.187      35.081    
  48.096      60.398      71.703      82.297      92.858      104.14      116.63      130.29      144.34      157.55    
  168.67      176.06      178.07      173.66      162.83      146.82      127.63      107.27      87.467      69.640    