   9   9   0   0
  0.1255842E+02  0.4913800E-09  0.4913800E-09  0.5405200E-09  0.5000000E-15
  1.000000000000000E-004
  CAR 
 unknown system                          
     14.63478585    -20.37287630  301      1.12766287      1.00000000
    -20.373  0.0000E+00  0.0000E+00
    -20.256  0.0000E+00  0.0000E+00
    -20.139  0.0000E+00  0.0000E+00
    -20.023  0.0000E+00  0.0000E+00
    -19.906  0.0000E+00  0.0000E+00
    -19.789  0.0000E+00  0.0000E+00
    -19.673  0.0000E+00  0.0000E+00
    -19.556  0.0000E+00  0.0000E+00
    -19.439  0.0000E+00  0.0000E+00
    -19.323  0.0000E+00  0.0000E+00
    -19.206  0.0000E+00  0.0000E+00
    -19.089  0.0000E+00  0.0000E+00
    -18.973  0.0000E+00  0.0000E+00
    -18.856  0.0000E+00  0.0000E+00
    -18.739  0.0000E+00  0.0000E+00
    -18.622  0.0000E+00  0.0000E+00
    -18.506  0.0000E+00  0.0000E+00
    -18.389  0.0000E+00  0.0000E+00
    -18.272  0.1077E+01  0.4238E-01
    -18.156  0.1783E+01  0.2046E+00
    -18.039  0.3281E+01  0.4773E+00
    -17.922  0.5034E+01  0.9678E+00
    -17.806  0.5578E+01  0.1867E+01
    -17.689  0.1152E+01  0.2013E+01
    -17.572  0.1706E+01  0.2165E+01
    -17.456  0.4020E+01  0.2464E+01
    -17.339  0.5231E+01  0.3449E+01
    -17.222  0.1678E+01  0.3784E+01
    -17.105  0.7585E+00  0.3918E+01
    -16.989  0.7433E+00  0.3990E+01
    -16.872  0.4728E+01  0.4221E+01
    -16.755  0.5195E+01  0.5187E+01
    -16.639  0.2311E+01  0.5572E+01
    -16.522  0.1381E+01  0.5780E+01
    -16.405  0.8639E+00  0.5913E+01
    -16.289  0.3502E+00  0.5990E+01
    -16.172  0.5632E+02  0.1118E+02
    -16.055  0.0000E+00  0.1200E+02
    -15.939  0.0000E+00  0.1200E+02
    -15.822  0.0000E+00  0.1200E+02
    -15.705  0.0000E+00  0.1200E+02
    -15.588  0.0000E+00  0.1200E+02
    -15.472  0.0000E+00  0.1200E+02
    -15.355  0.0000E+00  0.1200E+02
    -15.238  0.0000E+00  0.1200E+02
    -15.122  0.0000E+00  0.1200E+02
    -15.005  0.0000E+00  0.1200E+02
    -14.888  0.0000E+00  0.1200E+02
    -14.772  0.0000E+00  0.1200E+02
    -14.655  0.0000E+00  0.1200E+02
    -14.538  0.0000E+00  0.1200E+02
    -14.422  0.0000E+00  0.1200E+02
    -14.305  0.0000E+00  0.1200E+02
    -14.188  0.0000E+00  0.1200E+02
    -14.071  0.0000E+00  0.1200E+02
    -13.955  0.0000E+00  0.1200E+02
    -13.838  0.0000E+00  0.1200E+02
    -13.721  0.0000E+00  0.1200E+02
    -13.605  0.0000E+00  0.1200E+02
    -13.488  0.0000E+00  0.1200E+02
    -13.371  0.0000E+00  0.1200E+02
    -13.255  0.0000E+00  0.1200E+02
    -13.138  0.0000E+00  0.1200E+02
    -13.021  0.0000E+00  0.1200E+02
    -12.905  0.0000E+00  0.1200E+02
    -12.788  0.0000E+00  0.1200E+02
    -12.671  0.0000E+00  0.1200E+02
    -12.554  0.0000E+00  0.1200E+02
    -12.438  0.0000E+00  0.1200E+02
    -12.321  0.0000E+00  0.1200E+02
    -12.204  0.0000E+00  0.1200E+02
    -12.088  0.0000E+00  0.1200E+02
    -11.971  0.0000E+00  0.1200E+02
    -11.854  0.0000E+00  0.1200E+02
    -11.738  0.0000E+00  0.1200E+02
    -11.621  0.0000E+00  0.1200E+02
    -11.504  0.0000E+00  0.1200E+02
    -11.388  0.0000E+00  0.1200E+02
    -11.271  0.0000E+00  0.1200E+02
    -11.154  0.0000E+00  0.1200E+02
    -11.037  0.0000E+00  0.1200E+02
    -10.921  0.0000E+00  0.1200E+02
    -10.804  0.0000E+00  0.1200E+02
    -10.687  0.0000E+00  0.1200E+02
    -10.571  0.0000E+00  0.1200E+02
    -10.454  0.0000E+00  0.1200E+02
    -10.337  0.0000E+00  0.1200E+02
    -10.221  0.0000E+00  0.1200E+02
    -10.104  0.0000E+00  0.1200E+02
     -9.987  0.0000E+00  0.1200E+02
     -9.871  0.0000E+00  0.1200E+02
     -9.754  0.0000E+00  0.1200E+02
     -9.637  0.0000E+00  0.1200E+02
     -9.521  0.0000E+00  0.1200E+02
     -9.404  0.0000E+00  0.1200E+02
     -9.287  0.0000E+00  0.1200E+02
     -9.170  0.0000E+00  0.1200E+02
     -9.054  0.0000E+00  0.1200E+02
     -8.937  0.0000E+00  0.1200E+02
     -8.820  0.0000E+00  0.1200E+02
     -8.704  0.0000E+00  0.1200E+02
     -8.587  0.0000E+00  0.1200E+02
     -8.470  0.0000E+00  0.1200E+02
     -8.354  0.0000E+00  0.1200E+02
     -8.237  0.0000E+00  0.1200E+02
     -8.120  0.2363E+00  0.1201E+02
     -8.004  0.4210E+00  0.1206E+02
     -7.887  0.6265E+00  0.1212E+02
     -7.770  0.8411E+00  0.1220E+02
     -7.653  0.1126E+01  0.1231E+02
     -7.537  0.1566E+01  0.1247E+02
     -7.420  0.2589E+01  0.1270E+02
     -7.303  0.9442E+01  0.1333E+02
     -7.187  0.3778E+01  0.1383E+02
     -7.070  0.5417E+00  0.1396E+02
     -6.953  0.2845E+00  0.1400E+02
     -6.837  0.2369E+00  0.1403E+02
     -6.720  0.3775E+00  0.1407E+02
     -6.603  0.5760E+00  0.1412E+02
     -6.487  0.9778E+00  0.1421E+02
     -6.370  0.1655E+01  0.1436E+02
     -6.253  0.4517E+01  0.1468E+02
     -6.136  0.3401E+01  0.1530E+02
     -6.020  0.1900E+01  0.1560E+02
     -5.903  0.1117E+01  0.1577E+02
     -5.786  0.7532E+00  0.1588E+02
     -5.670  0.4969E+00  0.1595E+02
     -5.553  0.1848E+00  0.1600E+02
     -5.436  0.1110E+01  0.1604E+02
     -5.320  0.3071E+01  0.1629E+02
     -5.203  0.2972E+01  0.1668E+02
     -5.086  0.2902E+01  0.1702E+02
     -4.970  0.2438E+01  0.1734E+02
     -4.853  0.1662E+01  0.1758E+02
     -4.736  0.1215E+01  0.1774E+02
     -4.619  0.8642E+00  0.1786E+02
     -4.503  0.8021E+00  0.1795E+02
     -4.386  0.4771E+01  0.1819E+02
     -4.269  0.9867E+01  0.1991E+02
     -4.153  0.5841E+01  0.2081E+02
     -4.036  0.5525E+01  0.2156E+02
     -3.919  0.1687E+01  0.2210E+02
     -3.803  0.8227E+01  0.2286E+02
     -3.686  0.4275E+01  0.2359E+02
     -3.569  0.1792E+01  0.2395E+02
     -3.453  0.0000E+00  0.2400E+02
     -3.336  0.0000E+00  0.2400E+02
     -3.219  0.0000E+00  0.2400E+02
     -3.102  0.0000E+00  0.2400E+02
     -2.986  0.0000E+00  0.2400E+02
     -2.869  0.0000E+00  0.2400E+02
     -2.752  0.0000E+00  0.2400E+02
     -2.636  0.0000E+00  0.2400E+02
     -2.519  0.0000E+00  0.2400E+02
     -2.402  0.0000E+00  0.2400E+02
     -2.286  0.0000E+00  0.2400E+02
     -2.169  0.2059E+01  0.2402E+02
     -2.052  0.1301E+02  0.2516E+02
     -1.936  0.5998E+01  0.2613E+02
     -1.819  0.8267E+01  0.2681E+02
     -1.702  0.6337E+01  0.2771E+02
     -1.585  0.6782E+01  0.2839E+02
     -1.469  0.5746E+01  0.2945E+02
     -1.352  0.1574E+01  0.2999E+02
     -1.235  0.6919E+01  0.3022E+02
     -1.119  0.7003E+01  0.3159E+02
     -1.002  0.4290E+01  0.3201E+02
     -0.885  0.1003E+02  0.3369E+02
     -0.769  0.2335E+01  0.3398E+02
     -0.652  0.5901E+01  0.3453E+02
     -0.535  0.1002E+02  0.3536E+02
     -0.419  0.9758E+01  0.3665E+02
     -0.302  0.4746E+01  0.3760E+02
     -0.185  0.1038E+02  0.3819E+02
     -0.068  0.1077E+02  0.3950E+02
      0.048  0.5869E+01  0.4024E+02
      0.165  0.1284E+02  0.4173E+02
      0.282  0.2939E+01  0.4205E+02
      0.398  0.1221E+02  0.4320E+02
      0.515  0.4631E+01  0.4386E+02
      0.632  0.4752E+01  0.4440E+02
      0.748  0.9741E+01  0.4523E+02
      0.865  0.5163E+01  0.4622E+02
      0.982  0.1253E+02  0.4711E+02
      1.098  0.1041E-01  0.4800E+02
      1.215  0.0000E+00  0.4800E+02
      1.332  0.0000E+00  0.4800E+02
      1.449  0.0000E+00  0.4800E+02
      1.565  0.0000E+00  0.4800E+02
      1.682  0.0000E+00  0.4800E+02
      1.799  0.0000E+00  0.4800E+02
      1.915  0.0000E+00  0.4800E+02
      2.032  0.0000E+00  0.4800E+02
      2.149  0.0000E+00  0.4800E+02
      2.265  0.0000E+00  0.4800E+02
      2.382  0.0000E+00  0.4800E+02
      2.499  0.0000E+00  0.4800E+02
      2.615  0.0000E+00  0.4800E+02
      2.732  0.0000E+00  0.4800E+02
      2.849  0.0000E+00  0.4800E+02
      2.966  0.0000E+00  0.4800E+02
      3.082  0.0000E+00  0.4800E+02
      3.199  0.0000E+00  0.4800E+02
      3.316  0.0000E+00  0.4800E+02
      3.432  0.0000E+00  0.4800E+02
      3.549  0.0000E+00  0.4800E+02
      3.666  0.0000E+00  0.4800E+02
      3.782  0.0000E+00  0.4800E+02
      3.899  0.0000E+00  0.4800E+02
      4.016  0.0000E+00  0.4800E+02
      4.132  0.0000E+00  0.4800E+02
      4.249  0.0000E+00  0.4800E+02
      4.366  0.0000E+00  0.4800E+02
      4.483  0.0000E+00  0.4800E+02
      4.599  0.0000E+00  0.4800E+02
      4.716  0.0000E+00  0.4800E+02
      4.833  0.0000E+00  0.4800E+02
      4.949  0.0000E+00  0.4800E+02
      5.066  0.0000E+00  0.4800E+02
      5.183  0.0000E+00  0.4800E+02
      5.299  0.0000E+00  0.4800E+02
      5.416  0.0000E+00  0.4800E+02
      5.533  0.0000E+00  0.4800E+02
      5.649  0.0000E+00  0.4800E+02
      5.766  0.0000E+00  0.4800E+02
      5.883  0.0000E+00  0.4800E+02
      6.000  0.0000E+00  0.4800E+02
      6.116  0.0000E+00  0.4800E+02
      6.233  0.0000E+00  0.4800E+02
      6.350  0.0000E+00  0.4800E+02
      6.466  0.0000E+00  0.4800E+02
      6.583  0.0000E+00  0.4800E+02
      6.700  0.0000E+00  0.4800E+02
      6.816  0.0000E+00  0.4800E+02
      6.933  0.0000E+00  0.4800E+02
      7.050  0.0000E+00  0.4800E+02
      7.166  0.2119E-02  0.4800E+02
      7.283  0.2657E-01  0.4800E+02
      7.400  0.7838E-01  0.4801E+02
      7.517  0.1576E+00  0.4802E+02
      7.633  0.2292E+00  0.4804E+02
      7.750  0.2679E+00  0.4807E+02
      7.867  0.2881E+00  0.4811E+02
      7.983  0.3279E+00  0.4814E+02
      8.100  0.3759E+00  0.4818E+02
      8.217  0.4266E+00  0.4823E+02
      8.333  0.4799E+00  0.4828E+02
      8.450  0.5354E+00  0.4834E+02
      8.567  0.6549E+00  0.4841E+02
      8.683  0.8105E+00  0.4850E+02
      8.800  0.8129E+00  0.4859E+02
      8.917  0.8745E+00  0.4869E+02
      9.034  0.9380E+00  0.4880E+02
      9.150  0.1004E+01  0.4891E+02
      9.267  0.1073E+01  0.4903E+02
      9.384  0.1528E+01  0.4919E+02
      9.500  0.1353E+01  0.4937E+02
      9.617  0.1241E+01  0.4952E+02
      9.734  0.1419E+01  0.4967E+02
      9.850  0.1488E+01  0.4984E+02
      9.967  0.1660E+01  0.5006E+02
     10.084  0.1084E+01  0.5020E+02
     10.200  0.2193E+01  0.5037E+02
     10.317  0.6850E+01  0.5083E+02
     10.434  0.4852E+01  0.5193E+02
     10.551  0.4734E+01  0.5241E+02
     10.667  0.8703E+01  0.5322E+02
     10.784  0.5751E+01  0.5408E+02
     10.901  0.2363E+01  0.5450E+02
     11.017  0.4538E+01  0.5488E+02
     11.134  0.7503E+01  0.5566E+02
     11.251  0.5566E+01  0.5619E+02
     11.367  0.5988E+01  0.5688E+02
     11.484  0.7602E+01  0.5767E+02
     11.601  0.1141E+01  0.5807E+02
     11.717  0.2079E+02  0.5886E+02
     11.834  0.1778E+01  0.5968E+02
     11.951  0.8069E+00  0.5982E+02
     12.068  0.5486E+00  0.5989E+02
     12.184  0.3630E+00  0.5995E+02
     12.301  0.1948E+00  0.5998E+02
     12.418  0.8076E-01  0.5999E+02
     12.534  0.1728E-01  0.6000E+02
     12.651  0.0000E+00  0.6000E+02
     12.768  0.0000E+00  0.6000E+02
     12.884  0.0000E+00  0.6000E+02
     13.001  0.0000E+00  0.6000E+02
     13.118  0.0000E+00  0.6000E+02
     13.234  0.0000E+00  0.6000E+02
     13.351  0.0000E+00  0.6000E+02
     13.468  0.0000E+00  0.6000E+02
     13.585  0.0000E+00  0.6000E+02
     13.701  0.0000E+00  0.6000E+02
     13.818  0.0000E+00  0.6000E+02
     13.935  0.0000E+00  0.6000E+02
     14.051  0.0000E+00  0.6000E+02
     14.168  0.0000E+00  0.6000E+02
     14.285  0.0000E+00  0.6000E+02
     14.401  0.0000E+00  0.6000E+02
     14.518  0.0000E+00  0.6000E+02
     14.635  0.0000E+00  0.6000E+02
