Starting job 12684650 on c5-[32-33,35] on saga at Wed Sep 18 14:38:03 CEST 2024

The following modules were not unloaded:
  (Use "module --force purge" to unload all):

  1) StdEnv
 running on    4 total cores
 distrk:  each k-point on    4 cores,    1 groups
 distr:  one band on    2 cores,    2 groups
 using from now: INCAR     
 vasp.5.4.4.18Apr17-6-g9f103f2a35 (build Jul 15 2019 14:02:39) complex          
  
 POSCAR found type information on POSCAR  Si O 
 POSCAR found :  2 types and       9 ions
 scaLAPACK will be used
 LDA part: xc-table for Pade appr. of Perdew
 POSCAR, INCAR and KPOINTS ok, starting setup
 FFT: planning ...
 WAVECAR not read
 entering main loop
       N       E                     dE             d eps       ncg     rms          rms(c)
DAV:   1     0.344896007149E+03    0.34490E+03   -0.28830E+04  1620   0.177E+03
DAV:   2    -0.581985626118E+02   -0.40309E+03   -0.39237E+03  2154   0.360E+02
DAV:   3    -0.803598975007E+02   -0.22161E+02   -0.22084E+02  1944   0.926E+01
DAV:   4    -0.806443244608E+02   -0.28443E+00   -0.28390E+00  1944   0.114E+01
DAV:   5    -0.806494633632E+02   -0.51389E-02   -0.51374E-02  1872   0.153E+00    0.188E+01
RMM:   6    -0.710499735205E+02    0.95995E+01   -0.40407E+01  1720   0.331E+01    0.512E+00
RMM:   7    -0.710230524975E+02    0.26921E-01   -0.14881E+00  1901   0.555E+00    0.338E+00
RMM:   8    -0.710399471929E+02   -0.16895E-01   -0.25205E-01  1837   0.409E+00    0.622E-01
RMM:   9    -0.710330023078E+02    0.69449E-02   -0.55190E-02  1940   0.121E+00    0.132E-01
RMM:  10    -0.710359872086E+02   -0.29849E-02   -0.13741E-02  1889   0.615E-01    0.228E-01
RMM:  11    -0.710347085233E+02    0.12787E-02   -0.25241E-03  1933   0.285E-01    0.637E-02
RMM:  12    -0.710346604851E+02    0.48038E-04   -0.79464E-04  1924   0.146E-01    0.762E-03
RMM:  13    -0.710346618925E+02   -0.14074E-05   -0.20318E-05  1320   0.265E-02
   1 F= -.71034662E+02 E0= -.71034662E+02  d E =0.000000E+00

Job 12684650 consumed 0.0 billing hours from project nn9988k.

Submitted 2024-09-18T14:38:01; waited 2.0 seconds in the queue after becoming eligible to run.

Requested wallclock time: 10.0 minutes
Elapsed wallclock time:   28.0 seconds

Task and CPU statistics:
ID              CPUs  Tasks  CPU util                Start  Elapsed  Exit status
12684650           4            0.0 %  2024-09-18T14:38:03   28.0 s  0
12684650.batch     1      1     9.5 %  2024-09-18T14:38:03   28.0 s  0
12684650.vasp      4      4    89.3 %  2024-09-18T14:38:07   24.0 s  0

Used CPU time:   1.5 CPU minutes
Unused CPU time: 23.7 CPU seconds

Memory statistics, in GiB:
ID               Alloc   Usage
12684650          14.8        
12684650.batch     3.7     0.0
12684650.vasp     14.8     0.2

Job 12684650 completed at Wed Sep 18 14:38:31 CEST 2024
