<?xml version="1.0" encoding="ISO-8859-1"?>
<modeling>
 <generator>
  <i name="program" type="string">vasp </i>
  <i name="version" type="string">5.4.4.18Apr17-6-g9f103f2a35  </i>
  <i name="subversion" type="string">(build Jul 15 2019 14:02:39) complex            parallel </i>
  <i name="platform" type="string">TEST </i>
  <i name="date" type="string">2024 09 18 </i>
  <i name="time" type="string">14:38:10 </i>
 </generator>
 <incar>
  <i type="string" name="PREC">normal    ! low/normal/accurate</i>
  <i type="string" name="ALGO"> Fast      ! Algorithm for electronic re</i>
  <i type="int" name="ISPIN">     1</i>
  <i type="int" name="NELMIN">     4</i>
  <i name="EDIFF">      0.00001000</i>
  <i type="int" name="NSW">     0</i>
  <i name="ENCUT">    650.00000000</i>
  <i type="string" name="LREAL"> Auto      ! Projection in reciprocal sp</i>
  <i type="int" name="ISMEAR">    -5</i>
  <i name="SIGMA">      0.20000000</i>
  <i type="logical" name="LWAVE"> F  </i>
  <v type="int" name="KPOINT_BSE">    -1     0     0     0</v>
 </incar>
 <structure name="primitive_cell" >
  <crystal>
   <varray name="basis" >
    <v>       4.91380000       0.00000000       0.00000000 </v>
    <v>      -2.45690000       4.25547563       0.00000000 </v>
    <v>       0.00000000       0.00000000       5.40520000 </v>
   </varray>
   <i name="volume">    113.02573808 </i>
   <varray name="rec_basis" >
    <v>       0.20350849       0.11749568       0.00000000 </v>
    <v>       0.00000000       0.23499136       0.00000000 </v>
    <v>       0.00000000       0.00000000       0.18500703 </v>
   </varray>
  </crystal>
  <varray name="positions" >
   <v>       0.46980000       0.00000000      -0.33333333 </v>
   <v>       0.14830000      -0.26620000      -0.45226667 </v>
   <v>       0.41450000       0.26620000      -0.21440000 </v>
   <v>      -0.26620000       0.14830000       0.45226667 </v>
   <v>      -0.41450000      -0.14830000      -0.11893333 </v>
   <v>       0.00000000       0.46980000       0.33333333 </v>
   <v>      -0.46980000      -0.46980000       0.00000000 </v>
   <v>       0.26620000       0.41450000       0.21440000 </v>
   <v>      -0.14830000      -0.41450000       0.11893333 </v>
  </varray>
 </structure>
 <varray name="primitive_index" >
  <v type="int" >        1 </v>
  <v type="int" >        6 </v>
  <v type="int" >        4 </v>
  <v type="int" >        9 </v>
  <v type="int" >        5 </v>
  <v type="int" >        3 </v>
  <v type="int" >        2 </v>
  <v type="int" >        7 </v>
  <v type="int" >        8 </v>
 </varray>
 <kpoints>
  <generation param="Gamma">
   <v type="int" name="divisions">       6        6        5 </v>
   <v name="usershift">      0.00000000       0.00000000       0.00000000 </v>
   <v name="genvec1">      0.16666667      -0.00000000       0.00000000 </v>
   <v name="genvec2">      0.00000000       0.16666667       0.00000000 </v>
   <v name="genvec3">      0.00000000       0.00000000       0.20000000 </v>
   <v name="shift">      0.00000000       0.00000000       0.00000000 </v>
  </generation>
  <varray name="kpointlist" >
   <v>       0.00000000       0.00000000       0.00000000 </v>
   <v>       0.16666667       0.00000000       0.00000000 </v>
   <v>       0.33333333       0.00000000       0.00000000 </v>
   <v>       0.50000000       0.00000000       0.00000000 </v>
   <v>       0.16666667       0.16666667       0.00000000 </v>
   <v>       0.33333333       0.16666667       0.00000000 </v>
   <v>       0.33333333       0.33333333       0.00000000 </v>
   <v>       0.00000000       0.00000000       0.20000000 </v>
   <v>       0.16666667       0.00000000       0.20000000 </v>
   <v>       0.33333333       0.00000000       0.20000000 </v>
   <v>       0.50000000       0.00000000       0.20000000 </v>
   <v>      -0.33333333       0.00000000       0.20000000 </v>
   <v>      -0.16666667       0.00000000       0.20000000 </v>
   <v>       0.16666667       0.16666667       0.20000000 </v>
   <v>       0.33333333       0.16666667       0.20000000 </v>
   <v>       0.50000000       0.16666667       0.20000000 </v>
   <v>       0.33333333       0.33333333       0.20000000 </v>
   <v>       0.00000000       0.00000000       0.40000000 </v>
   <v>       0.16666667       0.00000000       0.40000000 </v>
   <v>       0.33333333       0.00000000       0.40000000 </v>
   <v>       0.50000000       0.00000000       0.40000000 </v>
   <v>      -0.33333333       0.00000000       0.40000000 </v>
   <v>      -0.16666667       0.00000000       0.40000000 </v>
   <v>       0.16666667       0.16666667       0.40000000 </v>
   <v>       0.33333333       0.16666667       0.40000000 </v>
   <v>       0.50000000       0.16666667       0.40000000 </v>
   <v>       0.33333333       0.33333333       0.40000000 </v>
  </varray>
  <varray name="weights" >
   <v>       0.00555556 </v>
   <v>       0.03333333 </v>
   <v>       0.03333333 </v>
   <v>       0.01666667 </v>
   <v>       0.03333333 </v>
   <v>       0.06666667 </v>
   <v>       0.01111111 </v>
   <v>       0.01111111 </v>
   <v>       0.03333333 </v>
   <v>       0.03333333 </v>
   <v>       0.03333333 </v>
   <v>       0.03333333 </v>
   <v>       0.03333333 </v>
   <v>       0.06666667 </v>
   <v>       0.06666667 </v>
   <v>       0.06666667 </v>
   <v>       0.02222222 </v>
   <v>       0.01111111 </v>
   <v>       0.03333333 </v>
   <v>       0.03333333 </v>
   <v>       0.03333333 </v>
   <v>       0.03333333 </v>
   <v>       0.03333333 </v>
   <v>       0.06666667 </v>
   <v>       0.06666667 </v>
   <v>       0.06666667 </v>
   <v>       0.02222222 </v>
  </varray>
  <varray name="tetrahedronlist"  type="int" >
   <v type="int" >        4        2        2        5       13 </v>
   <v type="int" >        4        1        2        2       13 </v>
   <v type="int" >        4        1        2        8       13 </v>
   <v type="int" >        4        2        5       13       14 </v>
   <v type="int" >        8        2        9       13       14 </v>
   <v type="int" >        8        2        8        9       13 </v>
   <v type="int" >        8        3        5        6       14 </v>
   <v type="int" >        8        2        3        5       14 </v>
   <v type="int" >        4        2        3        9       14 </v>
   <v type="int" >        4        3        6       14       15 </v>
   <v type="int" >        4        3       10       14       15 </v>
   <v type="int" >        4        3        9       10       14 </v>
   <v type="int" >        4        4        6        6       15 </v>
   <v type="int" >        4        3        4        6       15 </v>
   <v type="int" >        4        3        4       10       15 </v>
   <v type="int" >        4        4        6       15       16 </v>
   <v type="int" >        4        4       11       15       16 </v>
   <v type="int" >        4        4       10       11       15 </v>
   <v type="int" >        4        3        5        6       16 </v>
   <v type="int" >        4        3        4        6       16 </v>
   <v type="int" >        4        3        4       11       16 </v>
   <v type="int" >        4        3        5       14       16 </v>
   <v type="int" >        4        3       12       14       16 </v>
   <v type="int" >        4        3       11       12       16 </v>
   <v type="int" >        4        2        2        5       14 </v>
   <v type="int" >        4        2        3       12       14 </v>
   <v type="int" >        4        2        2        9       14 </v>
   <v type="int" >        4        2       12       13       14 </v>
   <v type="int" >        4        1        2        2        9 </v>
   <v type="int" >        4        1        2        9       13 </v>
   <v type="int" >        4        1        8        9       13 </v>
   <v type="int" >        4        3        5        6       12 </v>
   <v type="int" >        4        2        3        5       12 </v>
   <v type="int" >        4        2        5       12       13 </v>
   <v type="int" >        4        5        6       12       16 </v>
   <v type="int" >        4        5       12       14       16 </v>
   <v type="int" >        4        5       12       13       14 </v>
   <v type="int" >        8        6        6        7       16 </v>
   <v type="int" >        4        5        6        6       16 </v>
   <v type="int" >        4        5        6       14       16 </v>
   <v type="int" >        8        6        7       16       17 </v>
   <v type="int" >       16        6       15       16       17 </v>
   <v type="int" >        8        6       14       15       16 </v>
   <v type="int" >        8        6        6        7       17 </v>
   <v type="int" >        8        6        6       15       17 </v>
   <v type="int" >        4        3        5        6       15 </v>
   <v type="int" >        4        5        6        6       15 </v>
   <v type="int" >        4        5        6       15       16 </v>
   <v type="int" >        4        3        5       10       15 </v>
   <v type="int" >        4        5       10       14       15 </v>
   <v type="int" >        4        5       14       15       16 </v>
   <v type="int" >        4        2        3        5       10 </v>
   <v type="int" >        4        2        5       10       14 </v>
   <v type="int" >        4        2        9       10       14 </v>
   <v type="int" >        4        4        6        6       11 </v>
   <v type="int" >        8        3        4        6       11 </v>
   <v type="int" >        4        3        6       11       12 </v>
   <v type="int" >        4        6        6       11       15 </v>
   <v type="int" >        8        6       11       15       16 </v>
   <v type="int" >        4        6       11       12       16 </v>
   <v type="int" >        8        6        6        7       15 </v>
   <v type="int" >        8        6        7       15       16 </v>
   <v type="int" >        8        7       15       16       17 </v>
   <v type="int" >        4        4        6        6       16 </v>
   <v type="int" >        4        4        6       11       16 </v>
   <v type="int" >        4        3        6       11       15 </v>
   <v type="int" >        4        3       10       11       15 </v>
   <v type="int" >        4        3        5        6       10 </v>
   <v type="int" >        4        3        4        6       10 </v>
   <v type="int" >        4        4        6       10       11 </v>
   <v type="int" >        4        5        6       10       14 </v>
   <v type="int" >        4        6       10       14       15 </v>
   <v type="int" >        4        6       10       11       15 </v>
   <v type="int" >        4        5        6        6       14 </v>
   <v type="int" >        4        6        6       14       15 </v>
   <v type="int" >        4        3        6       12       14 </v>
   <v type="int" >        4        6       12       14       16 </v>
   <v type="int" >        4        3        4        6       12 </v>
   <v type="int" >        4        4        6       12       16 </v>
   <v type="int" >        4        4       11       12       16 </v>
   <v type="int" >        4        2        2        5        9 </v>
   <v type="int" >        4        2        3        5        9 </v>
   <v type="int" >        4        3        5        9       10 </v>
   <v type="int" >        4        2        5        9       13 </v>
   <v type="int" >        4        5        9       13       14 </v>
   <v type="int" >        4        5        9       10       14 </v>
   <v type="int" >        4        2        3        5       13 </v>
   <v type="int" >        4        3        5       13       14 </v>
   <v type="int" >        4        3       12       13       14 </v>
   <v type="int" >        4        1        2        2        8 </v>
   <v type="int" >        4        2        2        8        9 </v>
   <v type="int" >        4        9       13       14       23 </v>
   <v type="int" >        4        8        9       13       23 </v>
   <v type="int" >        4        8        9       18       23 </v>
   <v type="int" >        4        9       14       23       24 </v>
   <v type="int" >        4        9       19       23       24 </v>
   <v type="int" >        4        9       18       19       23 </v>
   <v type="int" >        4       10       14       15       24 </v>
   <v type="int" >        4        9       10       14       24 </v>
   <v type="int" >        4        9       10       19       24 </v>
   <v type="int" >        4       10       15       24       25 </v>
   <v type="int" >        4       10       20       24       25 </v>
   <v type="int" >        4       10       19       20       24 </v>
   <v type="int" >        4       11       15       16       25 </v>
   <v type="int" >        4       10       11       15       25 </v>
   <v type="int" >        4       10       11       20       25 </v>
   <v type="int" >        4       11       16       25       26 </v>
   <v type="int" >        4       11       21       25       26 </v>
   <v type="int" >        4       11       20       21       25 </v>
   <v type="int" >        4       12       14       16       26 </v>
   <v type="int" >        4       11       12       16       26 </v>
   <v type="int" >        4       11       12       21       26 </v>
   <v type="int" >        4       12       14       24       26 </v>
   <v type="int" >        4       12       22       24       26 </v>
   <v type="int" >        4       12       21       22       26 </v>
   <v type="int" >        4        9       13       14       24 </v>
   <v type="int" >        4       12       13       14       24 </v>
   <v type="int" >        4       12       13       22       24 </v>
   <v type="int" >        4        9       13       19       24 </v>
   <v type="int" >        4       13       19       23       24 </v>
   <v type="int" >        4       13       22       23       24 </v>
   <v type="int" >        4        8        9       13       19 </v>
   <v type="int" >        4        8       13       19       23 </v>
   <v type="int" >        4        8       18       19       23 </v>
   <v type="int" >        4       12       14       16       22 </v>
   <v type="int" >        4       12       13       14       22 </v>
   <v type="int" >        4       13       14       22       23 </v>
   <v type="int" >        4       14       16       22       26 </v>
   <v type="int" >        4       14       22       24       26 </v>
   <v type="int" >        4       14       22       23       24 </v>
   <v type="int" >        8       15       16       17       26 </v>
   <v type="int" >        4       14       15       16       26 </v>
   <v type="int" >        4       14       15       24       26 </v>
   <v type="int" >        8       15       17       26       27 </v>
   <v type="int" >        8       15       25       26       27 </v>
   <v type="int" >        4       15       24       25       26 </v>
   <v type="int" >        8       15       16       17       27 </v>
   <v type="int" >        8       15       16       25       27 </v>
   <v type="int" >        8       16       25       26       27 </v>
   <v type="int" >        4       10       14       15       25 </v>
   <v type="int" >        4       14       15       16       25 </v>
   <v type="int" >        4       14       16       25       26 </v>
   <v type="int" >        4       10       14       20       25 </v>
   <v type="int" >        4       14       20       24       25 </v>
   <v type="int" >        4       14       24       25       26 </v>
   <v type="int" >        4        9       10       14       20 </v>
   <v type="int" >        4        9       14       20       24 </v>
   <v type="int" >        4        9       19       20       24 </v>
   <v type="int" >        4       11       15       16       21 </v>
   <v type="int" >        4       11       12       16       21 </v>
   <v type="int" >        4       12       16       21       22 </v>
   <v type="int" >        4       15       16       21       25 </v>
   <v type="int" >        4       16       21       25       26 </v>
   <v type="int" >        4       16       21       22       26 </v>
   <v type="int" >        8       15       16       17       25 </v>
   <v type="int" >        8       16       17       25       26 </v>
   <v type="int" >        8       17       25       26       27 </v>
   <v type="int" >        4       11       15       16       26 </v>
   <v type="int" >        4       11       15       21       26 </v>
   <v type="int" >        4       15       21       25       26 </v>
   <v type="int" >        4       10       11       15       21 </v>
   <v type="int" >        4       10       15       21       25 </v>
   <v type="int" >        4       10       20       21       25 </v>
   <v type="int" >        4       10       14       15       20 </v>
   <v type="int" >        4       10       11       15       20 </v>
   <v type="int" >        4       11       15       20       21 </v>
   <v type="int" >        4       14       15       20       24 </v>
   <v type="int" >        4       15       20       24       25 </v>
   <v type="int" >        4       15       20       21       25 </v>
   <v type="int" >        4       12       14       16       24 </v>
   <v type="int" >        4       14       15       16       24 </v>
   <v type="int" >        4       15       16       24       25 </v>
   <v type="int" >        4       12       16       22       24 </v>
   <v type="int" >        4       16       22       24       26 </v>
   <v type="int" >        4       16       24       25       26 </v>
   <v type="int" >        4       11       12       16       22 </v>
   <v type="int" >        4       11       16       22       26 </v>
   <v type="int" >        4       11       21       22       26 </v>
   <v type="int" >        4        9       13       14       19 </v>
   <v type="int" >        4        9       10       14       19 </v>
   <v type="int" >        4       10       14       19       20 </v>
   <v type="int" >        4       13       14       19       23 </v>
   <v type="int" >        4       14       19       23       24 </v>
   <v type="int" >        4       14       19       20       24 </v>
   <v type="int" >        4       12       13       14       23 </v>
   <v type="int" >        4       12       14       23       24 </v>
   <v type="int" >        4       12       22       23       24 </v>
   <v type="int" >        4        8        9       13       18 </v>
   <v type="int" >        4        9       13       18       19 </v>
   <v type="int" >        4       13       18       19       23 </v>
   <v type="int" >        4       19       19       23       24 </v>
   <v type="int" >        4       18       19       19       23 </v>
   <v type="int" >        2       18       18       19       19 </v>
   <v type="int" >        2       19       19       24       24 </v>
   <v type="int" >        4       20       24       24       25 </v>
   <v type="int" >        4       19       20       24       24 </v>
   <v type="int" >        8       19       20       23       24 </v>
   <v type="int" >        8       20       24       25       26 </v>
   <v type="int" >        8       20       22       24       26 </v>
   <v type="int" >        8       20       22       23       24 </v>
   <v type="int" >        8       21       25       26       26 </v>
   <v type="int" >        8       20       21       25       26 </v>
   <v type="int" >        8       20       21       22       26 </v>
   <v type="int" >        4       21       21       25       26 </v>
   <v type="int" >        4       21       21       22       26 </v>
   <v type="int" >        4       22       24       25       26 </v>
   <v type="int" >        4       21       22       25       26 </v>
   <v type="int" >        4       21       21       22       25 </v>
   <v type="int" >        4       22       24       24       25 </v>
   <v type="int" >        4       20       22       24       25 </v>
   <v type="int" >        4       20       21       22       25 </v>
   <v type="int" >        4       19       23       24       24 </v>
   <v type="int" >        4       22       23       24       24 </v>
   <v type="int" >        8       19       23       23       24 </v>
   <v type="int" >        8       18       19       23       23 </v>
   <v type="int" >        4       18       18       19       23 </v>
   <v type="int" >        8       25       25       26       27 </v>
   <v type="int" >        4       24       25       25       26 </v>
   <v type="int" >        2       24       24       25       25 </v>
   <v type="int" >        4       25       25       27       27 </v>
   <v type="int" >        8       25       26       27       27 </v>
   <v type="int" >       16       25       26       26       27 </v>
   <v type="int" >        8       24       25       26       26 </v>
   <v type="int" >        4       22       24       24       26 </v>
   <v type="int" >        4       24       24       25       26 </v>
   <v type="int" >        4       19       20       22       24 </v>
   <v type="int" >        4       19       22       24       24 </v>
   <v type="int" >        4       19       22       23       24 </v>
   <v type="int" >        4       21       25       25       26 </v>
   <v type="int" >        2       21       21       25       25 </v>
   <v type="int" >        4       20       21       21       25 </v>
  </varray>
  <i name="volumeweight">      0.00092593 </i>
 </kpoints>
 <parameters>
  <separator name="general" >
   <i type="string" name="SYSTEM">unknown system</i>
   <i type="logical" name="LCOMPAT"> F  </i>
  </separator>
  <separator name="electronic" >
   <i type="string" name="PREC">normal</i>
   <i name="ENMAX">    650.00000000</i>
   <i name="ENAUG">    605.39200000</i>
   <i name="EDIFF">      0.00001000</i>
   <i type="int" name="IALGO">    68</i>
   <i type="int" name="IWAVPR">    10</i>
   <i type="int" name="NBANDS">    30</i>
   <i name="NELECT">     48.00000000</i>
   <i type="int" name="TURBO">     0</i>
   <i type="int" name="IRESTART">     0</i>
   <i type="int" name="NREBOOT">     0</i>
   <i type="int" name="NMIN">     0</i>
   <i name="EREF">      0.00000000</i>
   <separator name="electronic smearing" >
    <i type="int" name="ISMEAR">    -5</i>
    <i name="SIGMA">      0.20000000</i>
    <i name="KSPACING">      0.50000000</i>
    <i type="logical" name="KGAMMA"> T  </i>
   </separator>
   <separator name="electronic projectors" >
    <i type="logical" name="LREAL"> T  </i>
    <v name="ROPT">     -0.00050000     -0.00050000</v>
    <i type="int" name="LMAXPAW">  -100</i>
    <i type="int" name="LMAXMIX">     2</i>
    <i type="logical" name="NLSPLINE"> F  </i>
   </separator>
   <separator name="electronic startup" >
    <i type="int" name="ISTART">     0</i>
    <i type="int" name="ICHARG">     2</i>
    <i type="int" name="INIWAV">     1</i>
   </separator>
   <separator name="electronic spin" >
    <i type="int" name="ISPIN">     1</i>
    <i type="logical" name="LNONCOLLINEAR"> F  </i>
    <v name="MAGMOM">      1.00000000      1.00000000      1.00000000      1.00000000      1.00000000      1.00000000      1.00000000      1.00000000      1.00000000</v>
    <i name="NUPDOWN">     -1.00000000</i>
    <i type="logical" name="LSORBIT"> F  </i>
    <v name="SAXIS">      0.00000000      0.00000000      1.00000000</v>
    <i type="logical" name="LSPIRAL"> F  </i>
    <v name="QSPIRAL">      0.00000000      0.00000000      0.00000000</v>
    <i type="logical" name="LZEROZ"> F  </i>
   </separator>
   <separator name="electronic exchange-correlation" >
    <i type="logical" name="LASPH"> F  </i>
    <i type="logical" name="LMETAGGA"> F  </i>
   </separator>
   <separator name="electronic convergence" >
    <i type="int" name="NELM">    60</i>
    <i type="int" name="NELMDL">    -5</i>
    <i type="int" name="NELMIN">     4</i>
    <i name="ENINI">    650.00000000</i>
    <separator name="electronic convergence detail" >
     <i type="logical" name="LDIAG"> T  </i>
     <i type="logical" name="LSUBROT"> F  </i>
     <i name="WEIMIN">      0.00000000</i>
     <i name="EBREAK">      0.00000008</i>
     <i name="DEPER">      0.30000000</i>
     <i type="int" name="NRMM">     4</i>
     <i name="TIME">      0.40000000</i>
    </separator>
   </separator>
   <separator name="electronic mixer" >
    <i name="AMIX">      0.40000000</i>
    <i name="BMIX">      1.00000000</i>
    <i name="AMIN">      0.10000000</i>
    <i name="AMIX_MAG">      1.60000000</i>
    <i name="BMIX_MAG">      1.00000000</i>
    <separator name="electronic mixer details" >
     <i type="int" name="IMIX">     4</i>
     <i type="logical" name="MIXFIRST"> F  </i>
     <i type="int" name="MAXMIX">   -45</i>
     <i name="WC">    100.00000000</i>
     <i type="int" name="INIMIX">     1</i>
     <i type="int" name="MIXPRE">     1</i>
     <i type="int" name="MREMOVE">     5</i>
    </separator>
   </separator>
   <separator name="electronic dipolcorrection" >
    <i type="logical" name="LDIPOL"> F  </i>
    <i type="logical" name="LMONO"> F  </i>
    <i type="int" name="IDIPOL">     0</i>
    <i name="EPSILON">      1.00000000</i>
    <v name="DIPOL">   -100.00000000   -100.00000000   -100.00000000</v>
    <i name="EFIELD">      0.00000000</i>
   </separator>
  </separator>
  <separator name="grids" >
   <i type="int" name="NGX">    32</i>
   <i type="int" name="NGY">    32</i>
   <i type="int" name="NGZ">    36</i>
   <i type="int" name="NGXF">    64</i>
   <i type="int" name="NGYF">    64</i>
   <i type="int" name="NGZF">    72</i>
   <i type="logical" name="ADDGRID"> F  </i>
  </separator>
  <separator name="ionic" >
   <i type="int" name="NSW">     0</i>
   <i type="int" name="IBRION">    -1</i>
   <i type="int" name="MDALGO">     0</i>
   <i type="int" name="ISIF">     2</i>
   <i name="PSTRESS">      0.00000000</i>
   <i name="EDIFFG">      0.00010000</i>
   <i type="int" name="NFREE">     0</i>
   <i name="POTIM">      0.50000000</i>
   <i name="SMASS">     -3.00000000</i>
   <i name="SCALEE">      1.00000000</i>
  </separator>
  <separator name="ionic md" >
   <i name="TEBEG">      0.00010000</i>
   <i name="TEEND">      0.00010000</i>
   <i type="int" name="NBLOCK">     1</i>
   <i type="int" name="KBLOCK">     1</i>
   <i type="int" name="NPACO">   256</i>
   <i name="APACO">     16.00000000</i>
  </separator>
  <separator name="symmetry" >
   <i type="int" name="ISYM">     2</i>
   <i name="SYMPREC">      0.00001000</i>
  </separator>
  <separator name="dos" >
   <i type="int" name="LORBIT">     0</i>
   <v name="RWIGS">     -1.00000000     -1.00000000</v>
   <i type="int" name="NEDOS">   301</i>
   <i name="EMIN">     10.00000000</i>
   <i name="EMAX">    -10.00000000</i>
   <i name="EFERMI">      0.00000000</i>
  </separator>
  <separator name="writing" >
   <i type="int" name="NWRITE">     2</i>
   <i type="logical" name="LWAVE"> F  </i>
   <i type="logical" name="LDOWNSAMPLE"> F  </i>
   <i type="logical" name="LCHARG"> T  </i>
   <i type="logical" name="LPARD"> F  </i>
   <i type="logical" name="LVTOT"> F  </i>
   <i type="logical" name="LVHAR"> F  </i>
   <i type="logical" name="LELF"> F  </i>
   <i type="logical" name="LOPTICS"> F  </i>
   <v name="STM">      0.00000000      0.00000000      0.00000000      0.00000000      0.00000000      0.00000000      0.00000000</v>
  </separator>
  <separator name="performance" >
   <i type="int" name="NPAR">     2</i>
   <i type="int" name="NSIM">     4</i>
   <i type="int" name="NBLK">    -1</i>
   <i type="logical" name="LPLANE"> T  </i>
   <i type="logical" name="LSCALAPACK"> T  </i>
   <i type="logical" name="LSCAAWARE"> F  </i>
   <i type="logical" name="LSCALU"> F  </i>
   <i type="logical" name="LASYNC"> F  </i>
   <i type="logical" name="LORBITALREAL"> F  </i>
  </separator>
  <separator name="miscellaneous" >
   <i type="int" name="IDIOT">     3</i>
   <i type="int" name="ISPECIAL">     0</i>
   <i type="logical" name="LMUSIC"> F  </i>
   <v name="POMASS">     28.08500000     16.00000000</v>
   <v name="DARWINR">      0.00000000      0.00000000</v>
   <v name="DARWINV">      1.00000000      1.00000000</v>
   <i type="logical" name="LCORR"> T  </i>
  </separator>
  <i type="logical" name="GGA_COMPAT"> T  </i>
  <i type="logical" name="LBERRY"> F  </i>
  <i type="int" name="ICORELEVEL">     0</i>
  <i type="logical" name="LDAU"> F  </i>
  <i type="int" name="I_CONSTRAINED_M">     0</i>
  <separator name="electronic exchange-correlation" >
   <i type="string" name="GGA">--</i>
   <i type="int" name="VOSKOWN">     0</i>
   <i type="logical" name="LHFCALC"> F  </i>
   <i type="string" name="PRECFOCK"></i>
   <i type="logical" name="LSYMGRAD"> F  </i>
   <i type="logical" name="LHFONE"> F  </i>
   <i type="logical" name="LRHFCALC"> F  </i>
   <i type="logical" name="LTHOMAS"> F  </i>
   <i type="logical" name="LMODELHF"> F  </i>
   <i name="ENCUT4O">     -1.00000000</i>
   <i type="int" name="EXXOEP">     0</i>
   <i type="int" name="FOURORBIT">     0</i>
   <i name="AEXX">      0.00000000</i>
   <i name="HFALPHA">      0.00000000</i>
   <i name="MCALPHA">      0.00000000</i>
   <i name="ALDAX">      1.00000000</i>
   <i name="AGGAX">      1.00000000</i>
   <i name="ALDAC">      1.00000000</i>
   <i name="AGGAC">      1.00000000</i>
   <i type="int" name="NKREDX">     1</i>
   <i type="int" name="NKREDY">     1</i>
   <i type="int" name="NKREDZ">     1</i>
   <i type="logical" name="SHIFTRED"> F  </i>
   <i type="logical" name="ODDONLY"> F  </i>
   <i type="logical" name="EVENONLY"> F  </i>
   <i type="int" name="LMAXFOCK">     0</i>
   <i type="int" name="NMAXFOCKAE">     0</i>
   <i type="logical" name="LFOCKAEDFT"> F  </i>
   <i name="HFSCREEN">      0.00000000</i>
   <i name="HFSCREENC">      0.00000000</i>
   <i type="int" name="NBANDSGWLOW">     0</i>
  </separator>
  <separator name="vdW DFT" >
   <i type="logical" name="LUSE_VDW"> F  </i>
   <i name="Zab_VDW">     -0.84910000</i>
   <i name="PARAM1">      0.12340000</i>
   <i name="PARAM2">      1.00000000</i>
   <i name="PARAM3">      0.00000000</i>
  </separator>
  <separator name="model GW" >
   <i type="int" name="MODEL_GW">     0</i>
   <i name="MODEL_EPS0">      7.53504921</i>
   <i name="MODEL_ALPHA">      1.00000000</i>
  </separator>
  <separator name="linear response parameters" >
   <i type="logical" name="LEPSILON"> F  </i>
   <i type="logical" name="LRPA"> F  </i>
   <i type="logical" name="LNABLA"> F  </i>
   <i type="logical" name="LVEL"> F  </i>
   <i type="int" name="KINTER">     0</i>
   <i name="CSHIFT">      0.10000000</i>
   <i name="OMEGAMAX">     -1.00000000</i>
   <i name="DEG_THRESHOLD">      0.00200000</i>
   <i name="RTIME">     -0.10000000</i>
   <i name="WPLASMAI">      0.00000000</i>
   <v name="DFIELD">      0.00000000      0.00000000      0.00000000</v>
   <v name="WPLASMA">      0.00000000      0.00000000      0.00000000      0.00000000      0.00000000      0.00000000      0.00000000      0.00000000      0.00000000</v>
  </separator>
  <separator name="orbital magnetization" >
   <i type="logical" name="NUCIND"> F  </i>
   <v name="MAGPOS">      0.00000000      0.00000000      0.00000000</v>
   <i type="logical" name="LNICSALL"> T  </i>
   <i type="logical" name="ORBITALMAG"> F  </i>
   <i type="logical" name="LMAGBLOCH"> F  </i>
   <i type="logical" name="LCHIMAG"> F  </i>
   <i type="logical" name="LGAUGE"> T  </i>
   <i type="int" name="MAGATOM">     0</i>
   <v name="MAGDIPOL">      0.00000000      0.00000000      0.00000000</v>
   <v name="AVECCONST">      0.00000000      0.00000000      0.00000000</v>
  </separator>
  <separator name="response functions" >
   <i type="logical" name="LADDER"> F  </i>
   <i type="logical" name="LRPAFORCE"> F  </i>
   <i type="logical" name="LFXC"> F  </i>
   <i type="logical" name="LHARTREE"> T  </i>
   <i type="int" name="IBSE">     0</i>
   <v type="int" name="KPOINT">    -1     0     0     0</v>
   <i type="logical" name="LTCTE"> F  </i>
   <i type="logical" name="LTETE"> F  </i>
   <i type="logical" name="LTRIPLET"> F  </i>
   <i type="logical" name="LFXCEPS"> F  </i>
   <i type="logical" name="LFXHEG"> F  </i>
   <i type="int" name="NATURALO">     2</i>
   <i type="logical" name="L2ORDER"> F  </i>
   <i type="logical" name="LMP2LT"> F  </i>
   <i type="logical" name="LUSEW"> F  </i>
   <i name="ENCUTGW">     -2.00000000</i>
   <i name="ENCUTGWSOFT">     -2.00000000</i>
   <i name="ENCUTLF">     -1.00000000</i>
   <i type="int" name="LMAXMP2">    -1</i>
   <i name="SCISSOR">      0.00000000</i>
   <i type="int" name="NOMEGA">     0</i>
   <i type="int" name="NOMEGAR">     0</i>
   <i type="int" name="NBANDSGW">    -1</i>
   <i type="int" name="NBANDSO">    -1</i>
   <i type="int" name="NBANDSV">    -1</i>
   <i type="int" name="NELM">     1</i>
   <i type="int" name="NELMHF">     1</i>
   <i type="int" name="DIM">     3</i>
   <i type="int" name="ANTIRES">     0</i>
   <i name="OMEGAMAX">    -30.00000000</i>
   <i name="OMEGAMIN">    -30.00000000</i>
   <i name="OMEGATL">   -200.00000000</i>
   <i type="int" name="OMEGAGRID">   140</i>
   <i name="CSHIFT">     -0.10000000</i>
   <i type="logical" name="SELFENERGY"> F  </i>
   <i type="logical" name="LSPECTRAL"> F  </i>
   <i type="logical" name="LSPECTRALGW"> F  </i>
   <i type="logical" name="LSINGLES"> F  </i>
   <i type="logical" name="LFERMIGW"> F  </i>
   <i type="logical" name="ODDONLYGW"> F  </i>
   <i type="logical" name="EVENONLYGW"> F  </i>
   <i type="int" name="NKREDLFX">     1</i>
   <i type="int" name="NKREDLFY">     1</i>
   <i type="int" name="NKREDLFZ">     1</i>
   <i type="int" name="MAXMEM">  2800</i>
   <i type="int" name="TELESCOPE">     0</i>
   <i type="int" name="TAUPAR">     1</i>
   <i type="int" name="OMEGAPAR">    -1</i>
   <i name="LAMBDA">      1.00000000</i>
  </separator>
  <separator name="External order field" >
   <i name="OFIELD_KAPPA">      0.00000000</i>
   <v name="OFIELD_K">      0.00000000      0.00000000      0.00000000</v>
   <i name="OFIELD_Q6_NEAR">      0.00000000</i>
   <i name="OFIELD_Q6_FAR">      0.00000000</i>
   <i name="OFIELD_A">      0.00000000</i>
  </separator>
 </parameters>
 <atominfo>
  <atoms>       9 </atoms>
  <types>       2 </types>
  <array name="atoms" >
   <dimension dim="1">ion</dimension>
   <field type="string">element</field>
   <field type="int">atomtype</field>
   <set>
    <rc><c>Si</c><c>   1</c></rc>
    <rc><c>Si</c><c>   1</c></rc>
    <rc><c>Si</c><c>   1</c></rc>
    <rc><c>O </c><c>   2</c></rc>
    <rc><c>O </c><c>   2</c></rc>
    <rc><c>O </c><c>   2</c></rc>
    <rc><c>O </c><c>   2</c></rc>
    <rc><c>O </c><c>   2</c></rc>
    <rc><c>O </c><c>   2</c></rc>
   </set>
  </array>
  <array name="atomtypes" >
   <dimension dim="1">type</dimension>
   <field type="int">atomspertype</field>
   <field type="string">element</field>
   <field>mass</field>
   <field>valence</field>
   <field type="string">pseudopotential</field>
   <set>
    <rc><c>   3</c><c>Si</c><c>     28.08500000</c><c>      4.00000000</c><c> PAW_PBE Si 05Jan2001                   </c></rc>
    <rc><c>   6</c><c>O </c><c>     16.00000000</c><c>      6.00000000</c><c> PAW_PBE O 08Apr2002                    </c></rc>
   </set>
  </array>
 </atominfo>
 <structure name="initialpos" >
  <crystal>
   <varray name="basis" >
    <v>       4.91380000       0.00000000       0.00000000 </v>
    <v>      -2.45690000       4.25547563       0.00000000 </v>
    <v>       0.00000000       0.00000000       5.40520000 </v>
   </varray>
   <i name="volume">    113.02573808 </i>
   <varray name="rec_basis" >
    <v>       0.20350849       0.11749568       0.00000000 </v>
    <v>       0.00000000       0.23499136       0.00000000 </v>
    <v>       0.00000000       0.00000000       0.18500703 </v>
   </varray>
  </crystal>
  <varray name="positions" >
   <v>       0.46980000       0.00000000       0.66666667 </v>
   <v>       0.53020000       0.53020000       0.00000000 </v>
   <v>       0.00000000       0.46980000       0.33333333 </v>
   <v>       0.41450000       0.26620000       0.78560000 </v>
   <v>       0.58550000       0.85170000       0.88106667 </v>
   <v>       0.14830000       0.73380000       0.54773333 </v>
   <v>       0.26620000       0.41450000       0.21440000 </v>
   <v>       0.85170000       0.58550000       0.11893333 </v>
   <v>       0.73380000       0.14830000       0.45226667 </v>
  </varray>
 </structure>
 <calculation>
  <scstep>
   <time name="dav">    1.12    1.19</time>
   <time name="total">    1.18    1.33</time>
   <energy>
    <i name="alphaZ">     69.72428684 </i>
    <i name="ewald">  -1887.17190222 </i>
    <i name="hartreedc">   -937.16683993 </i>
    <i name="XCdc">    142.01202102 </i>
    <i name="pawpsdc">   1574.92322788 </i>
    <i name="pawaedc">  -1533.24131965 </i>
    <i name="eentropy">      0.00000000 </i>
    <i name="bandstr">     12.42126269 </i>
    <i name="atom">   2903.39527051 </i>
    <i name="e_fr_energy">    344.89600715 </i>
    <i name="e_wo_entrp">    344.89600715 </i>
    <i name="e_0_energy">    344.89600715 </i>
   </energy>
  </scstep>
  <scstep>
   <time name="dav">    1.56    1.57</time>
   <time name="total">    1.56    1.57</time>
   <energy>
    <i name="e_fr_energy">    -58.19856261 </i>
    <i name="e_wo_entrp">    -58.19856261 </i>
    <i name="e_0_energy">    -58.19856261 </i>
   </energy>
  </scstep>
  <scstep>
   <time name="dav">    1.33    1.33</time>
   <time name="total">    1.33    1.34</time>
   <energy>
    <i name="e_fr_energy">    -80.35989750 </i>
    <i name="e_wo_entrp">    -80.35989750 </i>
    <i name="e_0_energy">    -80.35989750 </i>
   </energy>
  </scstep>
  <scstep>
   <time name="dav">    1.29    1.30</time>
   <time name="total">    1.29    1.30</time>
   <energy>
    <i name="e_fr_energy">    -80.64432446 </i>
    <i name="e_wo_entrp">    -80.64432446 </i>
    <i name="e_0_energy">    -80.64432446 </i>
   </energy>
  </scstep>
  <scstep>
   <time name="dav">    1.24    1.25</time>
   <time name="total">    1.31    1.32</time>
   <energy>
    <i name="e_fr_energy">    -80.64946336 </i>
    <i name="e_wo_entrp">    -80.64946336 </i>
    <i name="e_0_energy">    -80.64946336 </i>
   </energy>
  </scstep>
  <scstep>
   <time name="diag">    0.23    0.23</time>
   <time name="diis">    0.79    0.80</time>
   <time name="orth">    0.03    0.03</time>
   <time name="total">    1.17    1.18</time>
   <energy>
    <i name="e_fr_energy">    -71.04997352 </i>
    <i name="e_wo_entrp">    -71.04997352 </i>
    <i name="e_0_energy">    -71.04997352 </i>
   </energy>
  </scstep>
  <scstep>
   <time name="diag">    0.23    0.23</time>
   <time name="diis">    0.84    0.85</time>
   <time name="orth">    0.03    0.03</time>
   <time name="total">    1.22    1.23</time>
   <energy>
    <i name="e_fr_energy">    -71.02305250 </i>
    <i name="e_wo_entrp">    -71.02305250 </i>
    <i name="e_0_energy">    -71.02305250 </i>
   </energy>
  </scstep>
  <scstep>
   <time name="diag">    0.23    0.23</time>
   <time name="diis">    0.83    0.83</time>
   <time name="orth">    0.03    0.03</time>
   <time name="total">    1.21    1.22</time>
   <energy>
    <i name="e_fr_energy">    -71.03994719 </i>
    <i name="e_wo_entrp">    -71.03994719 </i>
    <i name="e_0_energy">    -71.03994719 </i>
   </energy>
  </scstep>
  <scstep>
   <time name="diag">    0.22    0.23</time>
   <time name="diis">    0.83    0.84</time>
   <time name="orth">    0.03    0.03</time>
   <time name="total">    1.21    1.22</time>
   <energy>
    <i name="e_fr_energy">    -71.03300231 </i>
    <i name="e_wo_entrp">    -71.03300231 </i>
    <i name="e_0_energy">    -71.03300231 </i>
   </energy>
  </scstep>
  <scstep>
   <time name="diag">    0.22    0.23</time>
   <time name="diis">    0.83    0.84</time>
   <time name="orth">    0.03    0.03</time>
   <time name="total">    1.21    1.22</time>
   <energy>
    <i name="e_fr_energy">    -71.03598721 </i>
    <i name="e_wo_entrp">    -71.03598721 </i>
    <i name="e_0_energy">    -71.03598721 </i>
   </energy>
  </scstep>
  <scstep>
   <time name="diag">    0.22    0.23</time>
   <time name="diis">    0.83    0.84</time>
   <time name="orth">    0.03    0.03</time>
   <time name="total">    1.21    1.22</time>
   <energy>
    <i name="e_fr_energy">    -71.03470852 </i>
    <i name="e_wo_entrp">    -71.03470852 </i>
    <i name="e_0_energy">    -71.03470852 </i>
   </energy>
  </scstep>
  <scstep>
   <time name="diag">    0.22    0.22</time>
   <time name="diis">    0.84    0.84</time>
   <time name="orth">    0.03    0.03</time>
   <time name="total">    1.22    1.22</time>
   <energy>
    <i name="e_fr_energy">    -71.03466049 </i>
    <i name="e_wo_entrp">    -71.03466049 </i>
    <i name="e_0_energy">    -71.03466049 </i>
   </energy>
  </scstep>
  <scstep>
   <time name="diag">    0.22    0.23</time>
   <time name="diis">    0.60    0.61</time>
   <time name="orth">    0.03    0.03</time>
   <time name="total">    0.91    0.92</time>
   <energy>
    <i name="alphaZ">     69.72428684 </i>
    <i name="ewald">  -1887.17190222 </i>
    <i name="hartreedc">  -1071.52717998 </i>
    <i name="XCdc">    151.13053979 </i>
    <i name="pawpsdc">   2051.72761327 </i>
    <i name="pawaedc">  -2012.40636682 </i>
    <i name="eentropy">      0.00000000 </i>
    <i name="bandstr">   -275.90692328 </i>
    <i name="atom">   2903.39527051 </i>
    <i name="e_fr_energy">    -71.03466189 </i>
    <i name="e_wo_entrp">    -71.03466189 </i>
    <i name="e_0_energy">    -71.03466189 </i>
   </energy>
  </scstep>
  <structure>
   <crystal>
    <varray name="basis" >
     <v>       4.91380000       0.00000000       0.00000000 </v>
     <v>      -2.45690000       4.25547563       0.00000000 </v>
     <v>       0.00000000       0.00000000       5.40520000 </v>
    </varray>
    <i name="volume">    113.02573808 </i>
    <varray name="rec_basis" >
     <v>       0.20350849       0.11749568       0.00000000 </v>
     <v>       0.00000000       0.23499136       0.00000000 </v>
     <v>       0.00000000       0.00000000       0.18500703 </v>
    </varray>
   </crystal>
   <varray name="positions" >
    <v>       0.46980000       0.00000000       0.66666667 </v>
    <v>       0.53020000       0.53020000       0.00000000 </v>
    <v>       0.00000000       0.46980000       0.33333333 </v>
    <v>       0.41450000       0.26620000       0.78560000 </v>
    <v>       0.58550000       0.85170000       0.88106667 </v>
    <v>       0.14830000       0.73380000       0.54773333 </v>
    <v>       0.26620000       0.41450000       0.21440000 </v>
    <v>       0.85170000       0.58550000       0.11893333 </v>
    <v>       0.73380000       0.14830000       0.45226667 </v>
   </varray>
  </structure>
  <varray name="forces" >
   <v>       0.40961060      -0.00000000      -0.00000000 </v>
   <v>      -0.20480530      -0.35473318      -0.00000000 </v>
   <v>      -0.20480530       0.35473318      -0.00000000 </v>
   <v>      -0.51818383       0.30907571       0.07945764 </v>
   <v>      -0.00857551       0.60329821      -0.07945764 </v>
   <v>      -0.51818383      -0.30907571      -0.07945764 </v>
   <v>       0.52675933      -0.29422250      -0.07945764 </v>
   <v>       0.52675933       0.29422250       0.07945764 </v>
   <v>      -0.00857551      -0.60329821       0.07945764 </v>
  </varray>
  <varray name="stress" >
   <v>      83.07869602      -0.00000000      -0.00000000 </v>
   <v>      -0.00000000      83.07869602       0.00000000 </v>
   <v>       0.00000000       0.00000000      67.33290503 </v>
  </varray>
  <energy>
   <i name="e_fr_energy">    -71.03466189 </i>
   <i name="e_wo_entrp">    -71.03466189 </i>
   <i name="e_0_energy">      0.00000000 </i>
  </energy>
  <time name="totalsc">   18.09   18.66</time>
  <eigenvalues>
   <array>
    <dimension dim="1">band</dimension>
    <dimension dim="2">kpoint</dimension>
    <dimension dim="3">spin</dimension>
    <field>eigene</field>
    <field>occ</field>
    <set>
     <set comment="spin 1">
      <set comment="kpoint 1">
       <r>  -18.3729    1.0000 </r>
       <r>  -16.8362    1.0000 </r>
       <r>  -16.8362    1.0000 </r>
       <r>  -16.2016    1.0000 </r>
       <r>  -16.1536    1.0000 </r>
       <r>  -16.1536    1.0000 </r>
       <r>   -7.1748    1.0000 </r>
       <r>   -7.1748    1.0000 </r>
       <r>   -4.3346    1.0000 </r>
       <r>   -4.3287    1.0000 </r>
       <r>   -4.1765    1.0000 </r>
       <r>   -4.1765    1.0000 </r>
       <r>   -1.8584    1.0000 </r>
       <r>   -1.8584    1.0000 </r>
       <r>   -1.6208    1.0000 </r>
       <r>   -1.3611    1.0000 </r>
       <r>   -0.4105    1.0000 </r>
       <r>   -0.4105    1.0000 </r>
       <r>   -0.3925    1.0000 </r>
       <r>    0.1109    1.0000 </r>
       <r>    0.1109    1.0000 </r>
       <r>    0.4199    1.0000 </r>
       <r>    0.7607    1.0000 </r>
       <r>    0.7607    1.0000 </r>
       <r>    7.1206    0.0000 </r>
       <r>   10.3981    0.0000 </r>
       <r>   10.3981    0.0000 </r>
       <r>   10.8998    0.0000 </r>
       <r>   10.8998    0.0000 </r>
       <r>   12.6348    0.0000 </r>
      </set>
      <set comment="kpoint 2">
       <r>  -18.2914    1.0000 </r>
       <r>  -16.9305    1.0000 </r>
       <r>  -16.8243    1.0000 </r>
       <r>  -16.2212    1.0000 </r>
       <r>  -16.1707    1.0000 </r>
       <r>  -16.1601    1.0000 </r>
       <r>   -7.2124    1.0000 </r>
       <r>   -6.9933    1.0000 </r>
       <r>   -4.3747    1.0000 </r>
       <r>   -4.3488    1.0000 </r>
       <r>   -4.2773    1.0000 </r>
       <r>   -4.0159    1.0000 </r>
       <r>   -1.9836    1.0000 </r>
       <r>   -1.7987    1.0000 </r>
       <r>   -1.5908    1.0000 </r>
       <r>   -1.1947    1.0000 </r>
       <r>   -0.6840    1.0000 </r>
       <r>   -0.4494    1.0000 </r>
       <r>   -0.4040    1.0000 </r>
       <r>    0.0480    1.0000 </r>
       <r>    0.1009    1.0000 </r>
       <r>    0.3177    1.0000 </r>
       <r>    0.8239    1.0000 </r>
       <r>    0.8575    1.0000 </r>
       <r>    7.5426    0.0000 </r>
       <r>   10.3846    0.0000 </r>
       <r>   10.4449    0.0000 </r>
       <r>   10.9347    0.0000 </r>
       <r>   11.0433    0.0000 </r>
       <r>   12.3208    0.0000 </r>
      </set>
      <set comment="kpoint 3">
       <r>  -18.0724    1.0000 </r>
       <r>  -17.1897    1.0000 </r>
       <r>  -16.7988    1.0000 </r>
       <r>  -16.2444    1.0000 </r>
       <r>  -16.1991    1.0000 </r>
       <r>  -16.1792    1.0000 </r>
       <r>   -7.2841    1.0000 </r>
       <r>   -6.5738    1.0000 </r>
       <r>   -4.6308    1.0000 </r>
       <r>   -4.3825    1.0000 </r>
       <r>   -4.3007    1.0000 </r>
       <r>   -3.7137    1.0000 </r>
       <r>   -2.0661    1.0000 </r>
       <r>   -1.6904    1.0000 </r>
       <r>   -1.5658    1.0000 </r>
       <r>   -1.1987    1.0000 </r>
       <r>   -0.9997    1.0000 </r>
       <r>   -0.5804    1.0000 </r>
       <r>   -0.4887    1.0000 </r>
       <r>   -0.0033    1.0000 </r>
       <r>    0.0659    1.0000 </r>
       <r>    0.2689    1.0000 </r>
       <r>    0.8517    1.0000 </r>
       <r>    1.0009    1.0000 </r>
       <r>    8.5414    0.0000 </r>
       <r>   10.4280    0.0000 </r>
       <r>   10.5551    0.0000 </r>
       <r>   11.0556    0.0000 </r>
       <r>   11.3935    0.0000 </r>
       <r>   11.7502    0.0000 </r>
      </set>
      <set comment="kpoint 4">
       <r>  -17.8830    1.0000 </r>
       <r>  -17.4042    1.0000 </r>
       <r>  -16.7851    1.0000 </r>
       <r>  -16.2503    1.0000 </r>
       <r>  -16.2118    1.0000 </r>
       <r>  -16.1907    1.0000 </r>
       <r>   -7.3185    1.0000 </r>
       <r>   -6.3116    1.0000 </r>
       <r>   -4.8191    1.0000 </r>
       <r>   -4.3600    1.0000 </r>
       <r>   -4.3289    1.0000 </r>
       <r>   -3.5481    1.0000 </r>
       <r>   -1.9941    1.0000 </r>
       <r>   -1.8277    1.0000 </r>
       <r>   -1.5970    1.0000 </r>
       <r>   -1.2160    1.0000 </r>
       <r>   -1.0077    1.0000 </r>
       <r>   -0.6635    1.0000 </r>
       <r>   -0.5961    1.0000 </r>
       <r>   -0.0065    1.0000 </r>
       <r>    0.0589    1.0000 </r>
       <r>    0.2994    1.0000 </r>
       <r>    0.8347    1.0000 </r>
       <r>    1.0585    1.0000 </r>
       <r>    9.3788    0.0000 </r>
       <r>   10.1162    0.0000 </r>
       <r>   10.8429    0.0000 </r>
       <r>   10.8437    0.0000 </r>
       <r>   11.6224    0.0000 </r>
       <r>   11.6969    0.0000 </r>
      </set>
      <set comment="kpoint 5">
       <r>  -18.1387    1.0000 </r>
       <r>  -17.1064    1.0000 </r>
       <r>  -16.8128    1.0000 </r>
       <r>  -16.2391    1.0000 </r>
       <r>  -16.1960    1.0000 </r>
       <r>  -16.1696    1.0000 </r>
       <r>   -7.2765    1.0000 </r>
       <r>   -6.6675    1.0000 </r>
       <r>   -4.6385    1.0000 </r>
       <r>   -4.3676    1.0000 </r>
       <r>   -4.2256    1.0000 </r>
       <r>   -3.8032    1.0000 </r>
       <r>   -2.0331    1.0000 </r>
       <r>   -1.7856    1.0000 </r>
       <r>   -1.4860    1.0000 </r>
       <r>   -1.0862    1.0000 </r>
       <r>   -1.0785    1.0000 </r>
       <r>   -0.5592    1.0000 </r>
       <r>   -0.3613    1.0000 </r>
       <r>   -0.1295    1.0000 </r>
       <r>    0.1835    1.0000 </r>
       <r>    0.2289    1.0000 </r>
       <r>    0.8426    1.0000 </r>
       <r>    0.9785    1.0000 </r>
       <r>    8.2502    0.0000 </r>
       <r>   10.4272    0.0000 </r>
       <r>   10.5690    0.0000 </r>
       <r>   11.0518    0.0000 </r>
       <r>   11.2216    0.0000 </r>
       <r>   11.9506    0.0000 </r>
      </set>
      <set comment="kpoint 6">
       <r>  -17.8898    1.0000 </r>
       <r>  -17.3848    1.0000 </r>
       <r>  -16.8050    1.0000 </r>
       <r>  -16.2476    1.0000 </r>
       <r>  -16.2101    1.0000 </r>
       <r>  -16.1879    1.0000 </r>
       <r>   -7.3416    1.0000 </r>
       <r>   -6.2115    1.0000 </r>
       <r>   -5.0380    1.0000 </r>
       <r>   -4.3197    1.0000 </r>
       <r>   -4.2280    1.0000 </r>
       <r>   -3.5558    1.0000 </r>
       <r>   -1.9824    1.0000 </r>
       <r>   -1.7834    1.0000 </r>
       <r>   -1.6570    1.0000 </r>
       <r>   -1.1630    1.0000 </r>
       <r>   -1.0007    1.0000 </r>
       <r>   -0.6944    1.0000 </r>
       <r>   -0.5061    1.0000 </r>
       <r>   -0.1879    1.0000 </r>
       <r>    0.0315    1.0000 </r>
       <r>    0.4238    1.0000 </r>
       <r>    0.8012    1.0000 </r>
       <r>    1.0699    1.0000 </r>
       <r>    9.2666    0.0000 </r>
       <r>   10.3661    0.0000 </r>
       <r>   10.6831    0.0000 </r>
       <r>   11.0865    0.0000 </r>
       <r>   11.4967    0.0000 </r>
       <r>   11.7088    0.0000 </r>
      </set>
      <set comment="kpoint 7">
       <r>  -17.6378    1.0000 </r>
       <r>  -17.6378    1.0000 </r>
       <r>  -16.8191    1.0000 </r>
       <r>  -16.2465    1.0000 </r>
       <r>  -16.2023    1.0000 </r>
       <r>  -16.2023    1.0000 </r>
       <r>   -7.3793    1.0000 </r>
       <r>   -5.6409    1.0000 </r>
       <r>   -5.6409    1.0000 </r>
       <r>   -4.2371    1.0000 </r>
       <r>   -4.2371    1.0000 </r>
       <r>   -3.4615    1.0000 </r>
       <r>   -1.8528    1.0000 </r>
       <r>   -1.8528    1.0000 </r>
       <r>   -1.8019    1.0000 </r>
       <r>   -0.9759    1.0000 </r>
       <r>   -0.9759    1.0000 </r>
       <r>   -0.8200    1.0000 </r>
       <r>   -0.6231    1.0000 </r>
       <r>   -0.1454    1.0000 </r>
       <r>   -0.1454    1.0000 </r>
       <r>    0.6596    1.0000 </r>
       <r>    0.6596    1.0000 </r>
       <r>    1.1012    1.0000 </r>
       <r>   10.0503    0.0000 </r>
       <r>   10.0503    0.0000 </r>
       <r>   10.5385    0.0000 </r>
       <r>   11.4716    0.0000 </r>
       <r>   11.6204    0.0000 </r>
       <r>   11.6484    0.0000 </r>
      </set>
      <set comment="kpoint 8">
       <r>  -18.2944    1.0000 </r>
       <r>  -17.2853    1.0000 </r>
       <r>  -16.4518    1.0000 </r>
       <r>  -16.1993    1.0000 </r>
       <r>  -16.1693    1.0000 </r>
       <r>  -16.1386    1.0000 </r>
       <r>   -7.8478    1.0000 </r>
       <r>   -6.3477    1.0000 </r>
       <r>   -4.4944    1.0000 </r>
       <r>   -4.4180    1.0000 </r>
       <r>   -4.3692    1.0000 </r>
       <r>   -3.8712    1.0000 </r>
       <r>   -1.9425    1.0000 </r>
       <r>   -1.6639    1.0000 </r>
       <r>   -1.5629    1.0000 </r>
       <r>   -1.2312    1.0000 </r>
       <r>   -0.6036    1.0000 </r>
       <r>   -0.4828    1.0000 </r>
       <r>   -0.4226    1.0000 </r>
       <r>   -0.2824    1.0000 </r>
       <r>    0.0790    1.0000 </r>
       <r>    0.5203    1.0000 </r>
       <r>    0.8109    1.0000 </r>
       <r>    0.9705    1.0000 </r>
       <r>    7.5147    0.0000 </r>
       <r>   10.2549    0.0000 </r>
       <r>   10.4193    0.0000 </r>
       <r>   10.5209    0.0000 </r>
       <r>   11.2234    0.0000 </r>
       <r>   12.1493    0.0000 </r>
      </set>
      <set comment="kpoint 9">
       <r>  -18.2172    1.0000 </r>
       <r>  -17.2844    1.0000 </r>
       <r>  -16.5349    1.0000 </r>
       <r>  -16.2143    1.0000 </r>
       <r>  -16.1885    1.0000 </r>
       <r>  -16.1498    1.0000 </r>
       <r>   -7.7028    1.0000 </r>
       <r>   -6.3559    1.0000 </r>
       <r>   -4.6726    1.0000 </r>
       <r>   -4.3762    1.0000 </r>
       <r>   -4.1799    1.0000 </r>
       <r>   -3.9208    1.0000 </r>
       <r>   -2.0426    1.0000 </r>
       <r>   -1.6478    1.0000 </r>
       <r>   -1.5271    1.0000 </r>
       <r>   -1.1535    1.0000 </r>
       <r>   -0.8331    1.0000 </r>
       <r>   -0.4968    1.0000 </r>
       <r>   -0.3935    1.0000 </r>
       <r>   -0.2384    1.0000 </r>
       <r>    0.1618    1.0000 </r>
       <r>    0.4166    1.0000 </r>
       <r>    0.7524    1.0000 </r>
       <r>    1.0121    1.0000 </r>
       <r>    7.8905    0.0000 </r>
       <r>   10.2687    0.0000 </r>
       <r>   10.5109    0.0000 </r>
       <r>   10.6056    0.0000 </r>
       <r>   11.2981    0.0000 </r>
       <r>   11.9808    0.0000 </r>
      </set>
      <set comment="kpoint 10">
       <r>  -18.0155    1.0000 </r>
       <r>  -17.3245    1.0000 </r>
       <r>  -16.7212    1.0000 </r>
       <r>  -16.2418    1.0000 </r>
       <r>  -16.2146    1.0000 </r>
       <r>  -16.1695    1.0000 </r>
       <r>   -7.4098    1.0000 </r>
       <r>   -6.3277    1.0000 </r>
       <r>   -4.9078    1.0000 </r>
       <r>   -4.3349    1.0000 </r>
       <r>   -4.0988    1.0000 </r>
       <r>   -3.8247    1.0000 </r>
       <r>   -2.1377    1.0000 </r>
       <r>   -1.7106    1.0000 </r>
       <r>   -1.4734    1.0000 </r>
       <r>   -1.2107    1.0000 </r>
       <r>   -0.8948    1.0000 </r>
       <r>   -0.6016    1.0000 </r>
       <r>   -0.4909    1.0000 </r>
       <r>   -0.0536    1.0000 </r>
       <r>    0.1613    1.0000 </r>
       <r>    0.2811    1.0000 </r>
       <r>    0.7950    1.0000 </r>
       <r>    0.9673    1.0000 </r>
       <r>    8.8063    0.0000 </r>
       <r>   10.3205    0.0000 </r>
       <r>   10.5728    0.0000 </r>
       <r>   11.0320    0.0000 </r>
       <r>   11.4057    0.0000 </r>
       <r>   11.6570    0.0000 </r>
      </set>
      <set comment="kpoint 11">
       <r>  -17.8606    1.0000 </r>
       <r>  -17.3932    1.0000 </r>
       <r>  -16.8317    1.0000 </r>
       <r>  -16.2507    1.0000 </r>
       <r>  -16.2164    1.0000 </r>
       <r>  -16.1819    1.0000 </r>
       <r>   -7.2708    1.0000 </r>
       <r>   -6.2724    1.0000 </r>
       <r>   -5.0435    1.0000 </r>
       <r>   -4.3564    1.0000 </r>
       <r>   -4.1043    1.0000 </r>
       <r>   -3.6713    1.0000 </r>
       <r>   -2.0461    1.0000 </r>
       <r>   -1.9452    1.0000 </r>
       <r>   -1.4699    1.0000 </r>
       <r>   -1.2608    1.0000 </r>
       <r>   -0.8444    1.0000 </r>
       <r>   -0.7246    1.0000 </r>
       <r>   -0.4203    1.0000 </r>
       <r>   -0.0723    1.0000 </r>
       <r>    0.1406    1.0000 </r>
       <r>    0.3332    1.0000 </r>
       <r>    0.7218    1.0000 </r>
       <r>    0.9979    1.0000 </r>
       <r>    9.5720    0.0000 </r>
       <r>   10.1820    0.0000 </r>
       <r>   10.6861    0.0000 </r>
       <r>   11.1528    0.0000 </r>
       <r>   11.5841    0.0000 </r>
       <r>   11.6886    0.0000 </r>
      </set>
      <set comment="kpoint 12">
       <r>  -18.0191    1.0000 </r>
       <r>  -17.3044    1.0000 </r>
       <r>  -16.7546    1.0000 </r>
       <r>  -16.2340    1.0000 </r>
       <r>  -16.1937    1.0000 </r>
       <r>  -16.1809    1.0000 </r>
       <r>   -7.4134    1.0000 </r>
       <r>   -6.3291    1.0000 </r>
       <r>   -4.9095    1.0000 </r>
       <r>   -4.3741    1.0000 </r>
       <r>   -4.0757    1.0000 </r>
       <r>   -3.7753    1.0000 </r>
       <r>   -2.0734    1.0000 </r>
       <r>   -1.7021    1.0000 </r>
       <r>   -1.5265    1.0000 </r>
       <r>   -1.3891    1.0000 </r>
       <r>   -0.9244    1.0000 </r>
       <r>   -0.5000    1.0000 </r>
       <r>   -0.3467    1.0000 </r>
       <r>   -0.0895    1.0000 </r>
       <r>    0.0635    1.0000 </r>
       <r>    0.3949    1.0000 </r>
       <r>    0.6370    1.0000 </r>
       <r>    1.0607    1.0000 </r>
       <r>    8.7726    0.0000 </r>
       <r>   10.3802    0.0000 </r>
       <r>   10.7684    0.0000 </r>
       <r>   11.2045    0.0000 </r>
       <r>   11.3553    0.0000 </r>
       <r>   11.7339    0.0000 </r>
      </set>
      <set comment="kpoint 13">
       <r>  -18.2178    1.0000 </r>
       <r>  -17.2804    1.0000 </r>
       <r>  -16.5461    1.0000 </r>
       <r>  -16.2130    1.0000 </r>
       <r>  -16.1779    1.0000 </r>
       <r>  -16.1538    1.0000 </r>
       <r>   -7.7039    1.0000 </r>
       <r>   -6.3560    1.0000 </r>
       <r>   -4.6769    1.0000 </r>
       <r>   -4.3773    1.0000 </r>
       <r>   -4.1940    1.0000 </r>
       <r>   -3.8923    1.0000 </r>
       <r>   -2.0159    1.0000 </r>
       <r>   -1.6652    1.0000 </r>
       <r>   -1.5216    1.0000 </r>
       <r>   -1.2043    1.0000 </r>
       <r>   -0.8762    1.0000 </r>
       <r>   -0.4114    1.0000 </r>
       <r>   -0.3823    1.0000 </r>
       <r>   -0.2589    1.0000 </r>
       <r>    0.1920    1.0000 </r>
       <r>    0.3780    1.0000 </r>
       <r>    0.7269    1.0000 </r>
       <r>    1.0416    1.0000 </r>
       <r>    7.8808    0.0000 </r>
       <r>   10.3073    0.0000 </r>
       <r>   10.5362    0.0000 </r>
       <r>   10.6550    0.0000 </r>
       <r>   11.2307    0.0000 </r>
       <r>   12.0269    0.0000 </r>
      </set>
      <set comment="kpoint 14">
       <r>  -18.0764    1.0000 </r>
       <r>  -17.2972    1.0000 </r>
       <r>  -16.6880    1.0000 </r>
       <r>  -16.2302    1.0000 </r>
       <r>  -16.2047    1.0000 </r>
       <r>  -16.1663    1.0000 </r>
       <r>   -7.4861    1.0000 </r>
       <r>   -6.3298    1.0000 </r>
       <r>   -4.8865    1.0000 </r>
       <r>   -4.3411    1.0000 </r>
       <r>   -4.0718    1.0000 </r>
       <r>   -3.8603    1.0000 </r>
       <r>   -2.0946    1.0000 </r>
       <r>   -1.6484    1.0000 </r>
       <r>   -1.5298    1.0000 </r>
       <r>   -1.2577    1.0000 </r>
       <r>   -0.9425    1.0000 </r>
       <r>   -0.4932    1.0000 </r>
       <r>   -0.4119    1.0000 </r>
       <r>   -0.1309    1.0000 </r>
       <r>    0.1783    1.0000 </r>
       <r>    0.3089    1.0000 </r>
       <r>    0.7127    1.0000 </r>
       <r>    1.0298    1.0000 </r>
       <r>    8.5214    0.0000 </r>
       <r>   10.3268    0.0000 </r>
       <r>   10.7368    0.0000 </r>
       <r>   10.8867    0.0000 </r>
       <r>   11.3528    0.0000 </r>
       <r>   11.7141    0.0000 </r>
      </set>
      <set comment="kpoint 15">
       <r>  -17.8623    1.0000 </r>
       <r>  -17.3914    1.0000 </r>
       <r>  -16.8285    1.0000 </r>
       <r>  -16.2493    1.0000 </r>
       <r>  -16.2249    1.0000 </r>
       <r>  -16.1785    1.0000 </r>
       <r>   -7.2840    1.0000 </r>
       <r>   -6.1887    1.0000 </r>
       <r>   -5.1848    1.0000 </r>
       <r>   -4.3191    1.0000 </r>
       <r>   -4.0718    1.0000 </r>
       <r>   -3.6895    1.0000 </r>
       <r>   -2.0906    1.0000 </r>
       <r>   -1.8130    1.0000 </r>
       <r>   -1.5871    1.0000 </r>
       <r>   -1.1308    1.0000 </r>
       <r>   -0.8982    1.0000 </r>
       <r>   -0.7058    1.0000 </r>
       <r>   -0.4196    1.0000 </r>
       <r>   -0.1369    1.0000 </r>
       <r>    0.1229    1.0000 </r>
       <r>    0.3754    1.0000 </r>
       <r>    0.7393    1.0000 </r>
       <r>    0.9720    1.0000 </r>
       <r>    9.4557    0.0000 </r>
       <r>   10.4450    0.0000 </r>
       <r>   10.6049    0.0000 </r>
       <r>   11.2071    0.0000 </r>
       <r>   11.4479    0.0000 </r>
       <r>   11.7335    0.0000 </r>
      </set>
      <set comment="kpoint 16">
       <r>  -17.8650    1.0000 </r>
       <r>  -17.3820    1.0000 </r>
       <r>  -16.8402    1.0000 </r>
       <r>  -16.2444    1.0000 </r>
       <r>  -16.2235    1.0000 </r>
       <r>  -16.1796    1.0000 </r>
       <r>   -7.2852    1.0000 </r>
       <r>   -6.1898    1.0000 </r>
       <r>   -5.1845    1.0000 </r>
       <r>   -4.3285    1.0000 </r>
       <r>   -4.0657    1.0000 </r>
       <r>   -3.6747    1.0000 </r>
       <r>   -2.0548    1.0000 </r>
       <r>   -1.8397    1.0000 </r>
       <r>   -1.6054    1.0000 </r>
       <r>   -1.1845    1.0000 </r>
       <r>   -0.9102    1.0000 </r>
       <r>   -0.6716    1.0000 </r>
       <r>   -0.3221    1.0000 </r>
       <r>   -0.1850    1.0000 </r>
       <r>    0.0733    1.0000 </r>
       <r>    0.4569    1.0000 </r>
       <r>    0.6526    1.0000 </r>
       <r>    1.0082    1.0000 </r>
       <r>    9.4454    0.0000 </r>
       <r>   10.3537    0.0000 </r>
       <r>   10.9106    0.0000 </r>
       <r>   11.0650    0.0000 </r>
       <r>   11.4865    0.0000 </r>
       <r>   11.7556    0.0000 </r>
      </set>
      <set comment="kpoint 17">
       <r>  -17.7371    1.0000 </r>
       <r>  -17.4756    1.0000 </r>
       <r>  -16.8790    1.0000 </r>
       <r>  -16.2438    1.0000 </r>
       <r>  -16.2411    1.0000 </r>
       <r>  -16.1819    1.0000 </r>
       <r>   -7.2395    1.0000 </r>
       <r>   -5.9335    1.0000 </r>
       <r>   -5.5171    1.0000 </r>
       <r>   -4.2966    1.0000 </r>
       <r>   -4.0613    1.0000 </r>
       <r>   -3.6167    1.0000 </r>
       <r>   -2.0586    1.0000 </r>
       <r>   -1.7550    1.0000 </r>
       <r>   -1.7517    1.0000 </r>
       <r>   -0.9668    1.0000 </r>
       <r>   -0.9109    1.0000 </r>
       <r>   -0.8444    1.0000 </r>
       <r>   -0.3620    1.0000 </r>
       <r>   -0.2064    1.0000 </r>
       <r>    0.0277    1.0000 </r>
       <r>    0.5748    1.0000 </r>
       <r>    0.6206    1.0000 </r>
       <r>    0.9671    1.0000 </r>
       <r>   10.0543    0.0000 </r>
       <r>   10.2549    0.0000 </r>
       <r>   10.6643    0.0000 </r>
       <r>   11.3733    0.0000 </r>
       <r>   11.4370    0.0000 </r>
       <r>   11.5249    0.0000 </r>
      </set>
      <set comment="kpoint 18">
       <r>  -18.0672    1.0000 </r>
       <r>  -17.7164    1.0000 </r>
       <r>  -16.2247    1.0000 </r>
       <r>  -16.1928    1.0000 </r>
       <r>  -16.1827    1.0000 </r>
       <r>  -16.1292    1.0000 </r>
       <r>   -8.2280    1.0000 </r>
       <r>   -5.5294    1.0000 </r>
       <r>   -4.8797    1.0000 </r>
       <r>   -4.5331    1.0000 </r>
       <r>   -4.5009    1.0000 </r>
       <r>   -3.6318    1.0000 </r>
       <r>   -1.7847    1.0000 </r>
       <r>   -1.5540    1.0000 </r>
       <r>   -1.5114    1.0000 </r>
       <r>   -1.0216    1.0000 </r>
       <r>   -0.8444    1.0000 </r>
       <r>   -0.7456    1.0000 </r>
       <r>   -0.6354    1.0000 </r>
       <r>   -0.4585    1.0000 </r>
       <r>   -0.0911    1.0000 </r>
       <r>    0.7648    1.0000 </r>
       <r>    0.9806    1.0000 </r>
       <r>    0.9816    1.0000 </r>
       <r>    8.4958    0.0000 </r>
       <r>    9.6470    0.0000 </r>
       <r>   10.2001    0.0000 </r>
       <r>   10.5273    0.0000 </r>
       <r>   11.2519    0.0000 </r>
       <r>   11.6913    0.0000 </r>
      </set>
      <set comment="kpoint 19">
       <r>  -18.0053    1.0000 </r>
       <r>  -17.6748    1.0000 </r>
       <r>  -16.3460    1.0000 </r>
       <r>  -16.2140    1.0000 </r>
       <r>  -16.1904    1.0000 </r>
       <r>  -16.1435    1.0000 </r>
       <r>   -8.0284    1.0000 </r>
       <r>   -5.6339    1.0000 </r>
       <r>   -5.0479    1.0000 </r>
       <r>   -4.4328    1.0000 </r>
       <r>   -4.3352    1.0000 </r>
       <r>   -3.6886    1.0000 </r>
       <r>   -1.9247    1.0000 </r>
       <r>   -1.6429    1.0000 </r>
       <r>   -1.4935    1.0000 </r>
       <r>   -1.1199    1.0000 </r>
       <r>   -0.9428    1.0000 </r>
       <r>   -0.5701    1.0000 </r>
       <r>   -0.5228    1.0000 </r>
       <r>   -0.3215    1.0000 </r>
       <r>   -0.0180    1.0000 </r>
       <r>    0.6532    1.0000 </r>
       <r>    0.9061    1.0000 </r>
       <r>    0.9359    1.0000 </r>
       <r>    8.7743    0.0000 </r>
       <r>    9.7834    0.0000 </r>
       <r>   10.3722    0.0000 </r>
       <r>   10.5681    0.0000 </r>
       <r>   11.3113    0.0000 </r>
       <r>   11.6697    0.0000 </r>
      </set>
      <set comment="kpoint 20">
       <r>  -17.8770    1.0000 </r>
       <r>  -17.5386    1.0000 </r>
       <r>  -16.6587    1.0000 </r>
       <r>  -16.2547    1.0000 </r>
       <r>  -16.1971    1.0000 </r>
       <r>  -16.1660    1.0000 </r>
       <r>   -7.5423    1.0000 </r>
       <r>   -5.9334    1.0000 </r>
       <r>   -5.2313    1.0000 </r>
       <r>   -4.3135    1.0000 </r>
       <r>   -4.0598    1.0000 </r>
       <r>   -3.8241    1.0000 </r>
       <r>   -2.1047    1.0000 </r>
       <r>   -1.9218    1.0000 </r>
       <r>   -1.3493    1.0000 </r>
       <r>   -1.1841    1.0000 </r>
       <r>   -0.9432    1.0000 </r>
       <r>   -0.4846    1.0000 </r>
       <r>   -0.3515    1.0000 </r>
       <r>   -0.1423    1.0000 </r>
       <r>    0.1216    1.0000 </r>
       <r>    0.4573    1.0000 </r>
       <r>    0.6828    1.0000 </r>
       <r>    0.8809    1.0000 </r>
       <r>    9.4996    0.0000 </r>
       <r>   10.0811    0.0000 </r>
       <r>   10.6262    0.0000 </r>
       <r>   10.7989    0.0000 </r>
       <r>   11.5689    0.0000 </r>
       <r>   11.8532    0.0000 </r>
      </set>
      <set comment="kpoint 21">
       <r>  -17.8209    1.0000 </r>
       <r>  -17.3745    1.0000 </r>
       <r>  -16.9068    1.0000 </r>
       <r>  -16.2720    1.0000 </r>
       <r>  -16.1993    1.0000 </r>
       <r>  -16.1759    1.0000 </r>
       <r>   -7.1878    1.0000 </r>
       <r>   -6.2067    1.0000 </r>
       <r>   -5.2826    1.0000 </r>
       <r>   -4.2848    1.0000 </r>
       <r>   -3.9206    1.0000 </r>
       <r>   -3.8874    1.0000 </r>
       <r>   -2.1144    1.0000 </r>
       <r>   -2.0855    1.0000 </r>
       <r>   -1.3606    1.0000 </r>
       <r>   -1.1051    1.0000 </r>
       <r>   -0.9515    1.0000 </r>
       <r>   -0.5127    1.0000 </r>
       <r>   -0.2100    1.0000 </r>
       <r>   -0.0643    1.0000 </r>
       <r>    0.1292    1.0000 </r>
       <r>    0.4121    1.0000 </r>
       <r>    0.4686    1.0000 </r>
       <r>    0.9092    1.0000 </r>
       <r>    9.9974    0.0000 </r>
       <r>   10.3852    0.0000 </r>
       <r>   10.7491    0.0000 </r>
       <r>   11.0599    0.0000 </r>
       <r>   11.4715    0.0000 </r>
       <r>   11.7413    0.0000 </r>
      </set>
      <set comment="kpoint 22">
       <r>  -17.8827    1.0000 </r>
       <r>  -17.5264    1.0000 </r>
       <r>  -16.6764    1.0000 </r>
       <r>  -16.2476    1.0000 </r>
       <r>  -16.1888    1.0000 </r>
       <r>  -16.1701    1.0000 </r>
       <r>   -7.5442    1.0000 </r>
       <r>   -5.9380    1.0000 </r>
       <r>   -5.2254    1.0000 </r>
       <r>   -4.3344    1.0000 </r>
       <r>   -4.0606    1.0000 </r>
       <r>   -3.7851    1.0000 </r>
       <r>   -2.0816    1.0000 </r>
       <r>   -1.9449    1.0000 </r>
       <r>   -1.3193    1.0000 </r>
       <r>   -1.2550    1.0000 </r>
       <r>   -1.0042    1.0000 </r>
       <r>   -0.4110    1.0000 </r>
       <r>   -0.3003    1.0000 </r>
       <r>   -0.1108    1.0000 </r>
       <r>    0.1331    1.0000 </r>
       <r>    0.3273    1.0000 </r>
       <r>    0.6316    1.0000 </r>
       <r>    0.9800    1.0000 </r>
       <r>    9.3818    0.0000 </r>
       <r>   10.3565    0.0000 </r>
       <r>   10.5570    0.0000 </r>
       <r>   11.0703    0.0000 </r>
       <r>   11.2139    0.0000 </r>
       <r>   11.6699    0.0000 </r>
      </set>
      <set comment="kpoint 23">
       <r>  -18.0065    1.0000 </r>
       <r>  -17.6725    1.0000 </r>
       <r>  -16.3560    1.0000 </r>
       <r>  -16.2113    1.0000 </r>
       <r>  -16.1826    1.0000 </r>
       <r>  -16.1451    1.0000 </r>
       <r>   -8.0289    1.0000 </r>
       <r>   -5.6352    1.0000 </r>
       <r>   -5.0473    1.0000 </r>
       <r>   -4.4291    1.0000 </r>
       <r>   -4.3438    1.0000 </r>
       <r>   -3.6773    1.0000 </r>
       <r>   -1.9179    1.0000 </r>
       <r>   -1.6401    1.0000 </r>
       <r>   -1.4911    1.0000 </r>
       <r>   -1.1488    1.0000 </r>
       <r>   -0.9750    1.0000 </r>
       <r>   -0.5673    1.0000 </r>
       <r>   -0.4508    1.0000 </r>
       <r>   -0.3460    1.0000 </r>
       <r>   -0.0177    1.0000 </r>
       <r>    0.6514    1.0000 </r>
       <r>    0.8162    1.0000 </r>
       <r>    1.0214    1.0000 </r>
       <r>    8.7484    0.0000 </r>
       <r>    9.8386    0.0000 </r>
       <r>   10.3312    0.0000 </r>
       <r>   10.6864    0.0000 </r>
       <r>   11.2028    0.0000 </r>
       <r>   11.6552    0.0000 </r>
      </set>
      <set comment="kpoint 24">
       <r>  -17.9100    1.0000 </r>
       <r>  -17.5821    1.0000 </r>
       <r>  -16.5723    1.0000 </r>
       <r>  -16.2389    1.0000 </r>
       <r>  -16.1928    1.0000 </r>
       <r>  -16.1671    1.0000 </r>
       <r>   -7.6798    1.0000 </r>
       <r>   -5.8251    1.0000 </r>
       <r>   -5.2277    1.0000 </r>
       <r>   -4.3122    1.0000 </r>
       <r>   -4.1517    1.0000 </r>
       <r>   -3.7697    1.0000 </r>
       <r>   -2.0606    1.0000 </r>
       <r>   -1.8401    1.0000 </r>
       <r>   -1.3873    1.0000 </r>
       <r>   -1.2446    1.0000 </r>
       <r>   -0.9359    1.0000 </r>
       <r>   -0.4973    1.0000 </r>
       <r>   -0.3557    1.0000 </r>
       <r>   -0.1466    1.0000 </r>
       <r>    0.0878    1.0000 </r>
       <r>    0.4566    1.0000 </r>
       <r>    0.7428    1.0000 </r>
       <r>    0.9078    1.0000 </r>
       <r>    9.2308    0.0000 </r>
       <r>   10.0931    0.0000 </r>
       <r>   10.5304    0.0000 </r>
       <r>   10.9175    0.0000 </r>
       <r>   11.3096    0.0000 </r>
       <r>   11.6987    0.0000 </r>
      </set>
      <set comment="kpoint 25">
       <r>  -17.8144    1.0000 </r>
       <r>  -17.3998    1.0000 </r>
       <r>  -16.8753    1.0000 </r>
       <r>  -16.2696    1.0000 </r>
       <r>  -16.2078    1.0000 </r>
       <r>  -16.1831    1.0000 </r>
       <r>   -7.1814    1.0000 </r>
       <r>   -6.1612    1.0000 </r>
       <r>   -5.3722    1.0000 </r>
       <r>   -4.2312    1.0000 </r>
       <r>   -3.9648    1.0000 </r>
       <r>   -3.8834    1.0000 </r>
       <r>   -2.1528    1.0000 </r>
       <r>   -1.9556    1.0000 </r>
       <r>   -1.4611    1.0000 </r>
       <r>   -1.0949    1.0000 </r>
       <r>   -0.8796    1.0000 </r>
       <r>   -0.6372    1.0000 </r>
       <r>   -0.1538    1.0000 </r>
       <r>   -0.0350    1.0000 </r>
       <r>    0.1923    1.0000 </r>
       <r>    0.3684    1.0000 </r>
       <r>    0.5581    1.0000 </r>
       <r>    0.7873    1.0000 </r>
       <r>    9.9213    0.0000 </r>
       <r>   10.4291    0.0000 </r>
       <r>   10.7265    0.0000 </r>
       <r>   11.1407    0.0000 </r>
       <r>   11.5212    0.0000 </r>
       <r>   11.7588    0.0000 </r>
      </set>
      <set comment="kpoint 26">
       <r>  -17.8166    1.0000 </r>
       <r>  -17.3928    1.0000 </r>
       <r>  -16.8832    1.0000 </r>
       <r>  -16.2668    1.0000 </r>
       <r>  -16.2068    1.0000 </r>
       <r>  -16.1838    1.0000 </r>
       <r>   -7.1822    1.0000 </r>
       <r>   -6.1627    1.0000 </r>
       <r>   -5.3700    1.0000 </r>
       <r>   -4.2400    1.0000 </r>
       <r>   -3.9676    1.0000 </r>
       <r>   -3.8661    1.0000 </r>
       <r>   -2.1468    1.0000 </r>
       <r>   -1.9612    1.0000 </r>
       <r>   -1.4682    1.0000 </r>
       <r>   -1.0929    1.0000 </r>
       <r>   -0.9269    1.0000 </r>
       <r>   -0.5885    1.0000 </r>
       <r>   -0.1594    1.0000 </r>
       <r>    0.0237    1.0000 </r>
       <r>    0.1868    1.0000 </r>
       <r>    0.2960    1.0000 </r>
       <r>    0.5369    1.0000 </r>
       <r>    0.8311    1.0000 </r>
       <r>    9.8644    0.0000 </r>
       <r>   10.5296    0.0000 </r>
       <r>   10.7975    0.0000 </r>
       <r>   11.1237    0.0000 </r>
       <r>   11.3051    0.0000 </r>
       <r>   11.6851    0.0000 </r>
      </set>
      <set comment="kpoint 27">
       <r>  -17.7809    1.0000 </r>
       <r>  -17.2639    1.0000 </r>
       <r>  -17.0443    1.0000 </r>
       <r>  -16.2775    1.0000 </r>
       <r>  -16.2201    1.0000 </r>
       <r>  -16.1924    1.0000 </r>
       <r>   -6.8672    1.0000 </r>
       <r>   -6.3827    1.0000 </r>
       <r>   -5.4805    1.0000 </r>
       <r>   -4.1814    1.0000 </r>
       <r>   -3.9248    1.0000 </r>
       <r>   -3.9238    1.0000 </r>
       <r>   -2.1850    1.0000 </r>
       <r>   -1.7448    1.0000 </r>
       <r>   -1.7294    1.0000 </r>
       <r>   -0.8868    1.0000 </r>
       <r>   -0.8631    1.0000 </r>
       <r>   -0.8567    1.0000 </r>
       <r>    0.0156    1.0000 </r>
       <r>    0.0322    1.0000 </r>
       <r>    0.1976    1.0000 </r>
       <r>    0.4207    1.0000 </r>
       <r>    0.4424    1.0000 </r>
       <r>    0.6493    1.0000 </r>
       <r>   10.1466    0.0000 </r>
       <r>   10.7004    0.0000 </r>
       <r>   10.9245    0.0000 </r>
       <r>   11.2102    0.0000 </r>
       <r>   11.3150    0.0000 </r>
       <r>   11.3825    0.0000 </r>
      </set>
     </set>
    </set>
   </array>
  </eigenvalues>
  <separator name="orbital magnetization" >
   <v name="MAGDIPOLOUT">      0.00000000      0.00000000      0.00000000</v>
  </separator>
  <dos>
   <i name="efermi">      1.12766287 </i>
   <total>
    <array>
     <dimension dim="1">gridpoints</dimension>
     <dimension dim="2">spin</dimension>
     <field>energy</field>
     <field>total</field>
     <field>integrated</field>
     <set>
      <set comment="spin 1">
       <r>   -20.3729     0.0000     0.0000 </r>
       <r>   -20.2562     0.0000     0.0000 </r>
       <r>   -20.1395     0.0000     0.0000 </r>
       <r>   -20.0228     0.0000     0.0000 </r>
       <r>   -19.9061     0.0000     0.0000 </r>
       <r>   -19.7894     0.0000     0.0000 </r>
       <r>   -19.6727     0.0000     0.0000 </r>
       <r>   -19.5560     0.0000     0.0000 </r>
       <r>   -19.4393     0.0000     0.0000 </r>
       <r>   -19.3226     0.0000     0.0000 </r>
       <r>   -19.2060     0.0000     0.0000 </r>
       <r>   -19.0893     0.0000     0.0000 </r>
       <r>   -18.9726     0.0000     0.0000 </r>
       <r>   -18.8559     0.0000     0.0000 </r>
       <r>   -18.7392     0.0000     0.0000 </r>
       <r>   -18.6225     0.0000     0.0000 </r>
       <r>   -18.5058     0.0000     0.0000 </r>
       <r>   -18.3891     0.0000     0.0000 </r>
       <r>   -18.2724     1.0772     0.0424 </r>
       <r>   -18.1557     1.7832     0.2046 </r>
       <r>   -18.0390     3.2808     0.4773 </r>
       <r>   -17.9223     5.0344     0.9678 </r>
       <r>   -17.8056     5.5784     1.8675 </r>
       <r>   -17.6890     1.1519     2.0129 </r>
       <r>   -17.5723     1.7058     2.1651 </r>
       <r>   -17.4556     4.0200     2.4641 </r>
       <r>   -17.3389     5.2312     3.4487 </r>
       <r>   -17.2222     1.6777     3.7845 </r>
       <r>   -17.1055     0.7585     3.9176 </r>
       <r>   -16.9888     0.7433     3.9901 </r>
       <r>   -16.8721     4.7282     4.2212 </r>
       <r>   -16.7554     5.1950     5.1873 </r>
       <r>   -16.6387     2.3113     5.5720 </r>
       <r>   -16.5220     1.3810     5.7803 </r>
       <r>   -16.4053     0.8639     5.9129 </r>
       <r>   -16.2886     0.3502     5.9896 </r>
       <r>   -16.1720    56.3201    11.1837 </r>
       <r>   -16.0553     0.0000    12.0000 </r>
       <r>   -15.9386     0.0000    12.0000 </r>
       <r>   -15.8219     0.0000    12.0000 </r>
       <r>   -15.7052     0.0000    12.0000 </r>
       <r>   -15.5885     0.0000    12.0000 </r>
       <r>   -15.4718     0.0000    12.0000 </r>
       <r>   -15.3551     0.0000    12.0000 </r>
       <r>   -15.2384     0.0000    12.0000 </r>
       <r>   -15.1217     0.0000    12.0000 </r>
       <r>   -15.0050     0.0000    12.0000 </r>
       <r>   -14.8883     0.0000    12.0000 </r>
       <r>   -14.7717     0.0000    12.0000 </r>
       <r>   -14.6550     0.0000    12.0000 </r>
       <r>   -14.5383     0.0000    12.0000 </r>
       <r>   -14.4216     0.0000    12.0000 </r>
       <r>   -14.3049     0.0000    12.0000 </r>
       <r>   -14.1882     0.0000    12.0000 </r>
       <r>   -14.0715     0.0000    12.0000 </r>
       <r>   -13.9548     0.0000    12.0000 </r>
       <r>   -13.8381     0.0000    12.0000 </r>
       <r>   -13.7214     0.0000    12.0000 </r>
       <r>   -13.6047     0.0000    12.0000 </r>
       <r>   -13.4880     0.0000    12.0000 </r>
       <r>   -13.3713     0.0000    12.0000 </r>
       <r>   -13.2547     0.0000    12.0000 </r>
       <r>   -13.1380     0.0000    12.0000 </r>
       <r>   -13.0213     0.0000    12.0000 </r>
       <r>   -12.9046     0.0000    12.0000 </r>
       <r>   -12.7879     0.0000    12.0000 </r>
       <r>   -12.6712     0.0000    12.0000 </r>
       <r>   -12.5545     0.0000    12.0000 </r>
       <r>   -12.4378     0.0000    12.0000 </r>
       <r>   -12.3211     0.0000    12.0000 </r>
       <r>   -12.2044     0.0000    12.0000 </r>
       <r>   -12.0877     0.0000    12.0000 </r>
       <r>   -11.9710     0.0000    12.0000 </r>
       <r>   -11.8543     0.0000    12.0000 </r>
       <r>   -11.7377     0.0000    12.0000 </r>
       <r>   -11.6210     0.0000    12.0000 </r>
       <r>   -11.5043     0.0000    12.0000 </r>
       <r>   -11.3876     0.0000    12.0000 </r>
       <r>   -11.2709     0.0000    12.0000 </r>
       <r>   -11.1542     0.0000    12.0000 </r>
       <r>   -11.0375     0.0000    12.0000 </r>
       <r>   -10.9208     0.0000    12.0000 </r>
       <r>   -10.8041     0.0000    12.0000 </r>
       <r>   -10.6874     0.0000    12.0000 </r>
       <r>   -10.5707     0.0000    12.0000 </r>
       <r>   -10.4540     0.0000    12.0000 </r>
       <r>   -10.3373     0.0000    12.0000 </r>
       <r>   -10.2207     0.0000    12.0000 </r>
       <r>   -10.1040     0.0000    12.0000 </r>
       <r>    -9.9873     0.0000    12.0000 </r>
       <r>    -9.8706     0.0000    12.0000 </r>
       <r>    -9.7539     0.0000    12.0000 </r>
       <r>    -9.6372     0.0000    12.0000 </r>
       <r>    -9.5205     0.0000    12.0000 </r>
       <r>    -9.4038     0.0000    12.0000 </r>
       <r>    -9.2871     0.0000    12.0000 </r>
       <r>    -9.1704     0.0000    12.0000 </r>
       <r>    -9.0537     0.0000    12.0000 </r>
       <r>    -8.9370     0.0000    12.0000 </r>
       <r>    -8.8203     0.0000    12.0000 </r>
       <r>    -8.7037     0.0000    12.0000 </r>
       <r>    -8.5870     0.0000    12.0000 </r>
       <r>    -8.4703     0.0000    12.0000 </r>
       <r>    -8.3536     0.0000    12.0000 </r>
       <r>    -8.2369     0.0000    12.0000 </r>
       <r>    -8.1202     0.2363    12.0117 </r>
       <r>    -8.0035     0.4210    12.0560 </r>
       <r>    -7.8868     0.6265    12.1168 </r>
       <r>    -7.7701     0.8411    12.2029 </r>
       <r>    -7.6534     1.1263    12.3143 </r>
       <r>    -7.5367     1.5661    12.4704 </r>
       <r>    -7.4200     2.5889    12.6978 </r>
       <r>    -7.3033     9.4423    13.3300 </r>
       <r>    -7.1867     3.7779    13.8349 </r>
       <r>    -7.0700     0.5417    13.9574 </r>
       <r>    -6.9533     0.2845    14.0039 </r>
       <r>    -6.8366     0.2369    14.0310 </r>
       <r>    -6.7199     0.3775    14.0665 </r>
       <r>    -6.6032     0.5760    14.1208 </r>
       <r>    -6.4865     0.9778    14.2092 </r>
       <r>    -6.3698     1.6549    14.3585 </r>
       <r>    -6.2531     4.5168    14.6750 </r>
       <r>    -6.1364     3.4011    15.2965 </r>
       <r>    -6.0197     1.8999    15.5989 </r>
       <r>    -5.9030     1.1169    15.7677 </r>
       <r>    -5.7864     0.7532    15.8752 </r>
       <r>    -5.6697     0.4969    15.9472 </r>
       <r>    -5.5530     0.1848    15.9994 </r>
       <r>    -5.4363     1.1104    16.0390 </r>
       <r>    -5.3196     3.0712    16.2853 </r>
       <r>    -5.2029     2.9724    16.6803 </r>
       <r>    -5.0862     2.9024    17.0186 </r>
       <r>    -4.9695     2.4381    17.3399 </r>
       <r>    -4.8528     1.6622    17.5755 </r>
       <r>    -4.7361     1.2150    17.7422 </r>
       <r>    -4.6194     0.8642    17.8634 </r>
       <r>    -4.5027     0.8021    17.9485 </r>
       <r>    -4.3860     4.7705    18.1934 </r>
       <r>    -4.2694     9.8669    19.9054 </r>
       <r>    -4.1527     5.8408    20.8133 </r>
       <r>    -4.0360     5.5250    21.5634 </r>
       <r>    -3.9193     1.6873    22.1010 </r>
       <r>    -3.8026     8.2271    22.8565 </r>
       <r>    -3.6859     4.2746    23.5924 </r>
       <r>    -3.5692     1.7923    23.9461 </r>
       <r>    -3.4525     0.0000    24.0000 </r>
       <r>    -3.3358     0.0000    24.0000 </r>
       <r>    -3.2191     0.0000    24.0000 </r>
       <r>    -3.1024     0.0000    24.0000 </r>
       <r>    -2.9857     0.0000    24.0000 </r>
       <r>    -2.8690     0.0000    24.0000 </r>
       <r>    -2.7524     0.0000    24.0000 </r>
       <r>    -2.6357     0.0000    24.0000 </r>
       <r>    -2.5190     0.0000    24.0000 </r>
       <r>    -2.4023     0.0000    24.0000 </r>
       <r>    -2.2856     0.0000    24.0000 </r>
       <r>    -2.1689     2.0592    24.0160 </r>
       <r>    -2.0522    13.0120    25.1625 </r>
       <r>    -1.9355     5.9979    26.1328 </r>
       <r>    -1.8188     8.2673    26.8109 </r>
       <r>    -1.7021     6.3366    27.7051 </r>
       <r>    -1.5854     6.7824    28.3898 </r>
       <r>    -1.4687     5.7458    29.4465 </r>
       <r>    -1.3520     1.5742    29.9874 </r>
       <r>    -1.2354     6.9191    30.2235 </r>
       <r>    -1.1187     7.0033    31.5877 </r>
       <r>    -1.0020     4.2896    32.0099 </r>
       <r>    -0.8853    10.0285    33.6876 </r>
       <r>    -0.7686     2.3347    33.9819 </r>
       <r>    -0.6519     5.9005    34.5289 </r>
       <r>    -0.5352    10.0180    35.3638 </r>
       <r>    -0.4185     9.7577    36.6453 </r>
       <r>    -0.3018     4.7458    37.5951 </r>
       <r>    -0.1851    10.3769    38.1885 </r>
       <r>    -0.0684    10.7693    39.4985 </r>
       <r>     0.0483     5.8691    40.2384 </r>
       <r>     0.1650    12.8352    41.7336 </r>
       <r>     0.2816     2.9390    42.0531 </r>
       <r>     0.3983    12.2133    43.1963 </r>
       <r>     0.5150     4.6308    43.8564 </r>
       <r>     0.6317     4.7517    44.3983 </r>
       <r>     0.7484     9.7411    45.2322 </r>
       <r>     0.8651     5.1632    46.2229 </r>
       <r>     0.9818    12.5341    47.1088 </r>
       <r>     1.0985     0.0104    48.0000 </r>
       <r>     1.2152     0.0000    48.0000 </r>
       <r>     1.3319     0.0000    48.0000 </r>
       <r>     1.4486     0.0000    48.0000 </r>
       <r>     1.5653     0.0000    48.0000 </r>
       <r>     1.6820     0.0000    48.0000 </r>
       <r>     1.7986     0.0000    48.0000 </r>
       <r>     1.9153     0.0000    48.0000 </r>
       <r>     2.0320     0.0000    48.0000 </r>
       <r>     2.1487     0.0000    48.0000 </r>
       <r>     2.2654     0.0000    48.0000 </r>
       <r>     2.3821     0.0000    48.0000 </r>
       <r>     2.4988     0.0000    48.0000 </r>
       <r>     2.6155     0.0000    48.0000 </r>
       <r>     2.7322     0.0000    48.0000 </r>
       <r>     2.8489     0.0000    48.0000 </r>
       <r>     2.9656     0.0000    48.0000 </r>
       <r>     3.0823     0.0000    48.0000 </r>
       <r>     3.1989     0.0000    48.0000 </r>
       <r>     3.3156     0.0000    48.0000 </r>
       <r>     3.4323     0.0000    48.0000 </r>
       <r>     3.5490     0.0000    48.0000 </r>
       <r>     3.6657     0.0000    48.0000 </r>
       <r>     3.7824     0.0000    48.0000 </r>
       <r>     3.8991     0.0000    48.0000 </r>
       <r>     4.0158     0.0000    48.0000 </r>
       <r>     4.1325     0.0000    48.0000 </r>
       <r>     4.2492     0.0000    48.0000 </r>
       <r>     4.3659     0.0000    48.0000 </r>
       <r>     4.4826     0.0000    48.0000 </r>
       <r>     4.5993     0.0000    48.0000 </r>
       <r>     4.7159     0.0000    48.0000 </r>
       <r>     4.8326     0.0000    48.0000 </r>
       <r>     4.9493     0.0000    48.0000 </r>
       <r>     5.0660     0.0000    48.0000 </r>
       <r>     5.1827     0.0000    48.0000 </r>
       <r>     5.2994     0.0000    48.0000 </r>
       <r>     5.4161     0.0000    48.0000 </r>
       <r>     5.5328     0.0000    48.0000 </r>
       <r>     5.6495     0.0000    48.0000 </r>
       <r>     5.7662     0.0000    48.0000 </r>
       <r>     5.8829     0.0000    48.0000 </r>
       <r>     5.9996     0.0000    48.0000 </r>
       <r>     6.1163     0.0000    48.0000 </r>
       <r>     6.2329     0.0000    48.0000 </r>
       <r>     6.3496     0.0000    48.0000 </r>
       <r>     6.4663     0.0000    48.0000 </r>
       <r>     6.5830     0.0000    48.0000 </r>
       <r>     6.6997     0.0000    48.0000 </r>
       <r>     6.8164     0.0000    48.0000 </r>
       <r>     6.9331     0.0000    48.0000 </r>
       <r>     7.0498     0.0000    48.0000 </r>
       <r>     7.1665     0.0021    48.0000 </r>
       <r>     7.2832     0.0266    48.0014 </r>
       <r>     7.3999     0.0784    48.0073 </r>
       <r>     7.5166     0.1576    48.0208 </r>
       <r>     7.6333     0.2292    48.0442 </r>
       <r>     7.7499     0.2679    48.0734 </r>
       <r>     7.8666     0.2881    48.1060 </r>
       <r>     7.9833     0.3279    48.1416 </r>
       <r>     8.1000     0.3759    48.1827 </r>
       <r>     8.2167     0.4266    48.2295 </r>
       <r>     8.3334     0.4799    48.2823 </r>
       <r>     8.4501     0.5354    48.3415 </r>
       <r>     8.5668     0.6549    48.4096 </r>
       <r>     8.6835     0.8105    48.4951 </r>
       <r>     8.8002     0.8129    48.5932 </r>
       <r>     8.9169     0.8745    48.6916 </r>
       <r>     9.0336     0.9380    48.7973 </r>
       <r>     9.1503     1.0036    48.9106 </r>
       <r>     9.2669     1.0734    49.0316 </r>
       <r>     9.3836     1.5279    49.1932 </r>
       <r>     9.5003     1.3531    49.3660 </r>
       <r>     9.6170     1.2410    49.5150 </r>
       <r>     9.7337     1.4188    49.6668 </r>
       <r>     9.8504     1.4875    49.8407 </r>
       <r>     9.9671     1.6604    50.0575 </r>
       <r>    10.0838     1.0839    50.2039 </r>
       <r>    10.2005     2.1933    50.3702 </r>
       <r>    10.3172     6.8504    50.8348 </r>
       <r>    10.4339     4.8521    51.9291 </r>
       <r>    10.5506     4.7339    52.4143 </r>
       <r>    10.6673     8.7028    53.2226 </r>
       <r>    10.7839     5.7510    54.0789 </r>
       <r>    10.9006     2.3628    54.5032 </r>
       <r>    11.0173     4.5379    54.8759 </r>
       <r>    11.1340     7.5030    55.6578 </r>
       <r>    11.2507     5.5658    56.1924 </r>
       <r>    11.3674     5.9878    56.8775 </r>
       <r>    11.4841     7.6024    57.6657 </r>
       <r>    11.6008     1.1413    58.0700 </r>
       <r>    11.7175    20.7908    58.8645 </r>
       <r>    11.8342     1.7778    59.6798 </r>
       <r>    11.9509     0.8069    59.8167 </r>
       <r>    12.0676     0.5486    59.8932 </r>
       <r>    12.1842     0.3630    59.9464 </r>
       <r>    12.3009     0.1948    59.9787 </r>
       <r>    12.4176     0.0808    59.9942 </r>
       <r>    12.5343     0.0173    59.9994 </r>
       <r>    12.6510     0.0000    60.0000 </r>
       <r>    12.7677     0.0000    60.0000 </r>
       <r>    12.8844     0.0000    60.0000 </r>
       <r>    13.0011     0.0000    60.0000 </r>
       <r>    13.1178     0.0000    60.0000 </r>
       <r>    13.2345     0.0000    60.0000 </r>
       <r>    13.3512     0.0000    60.0000 </r>
       <r>    13.4679     0.0000    60.0000 </r>
       <r>    13.5846     0.0000    60.0000 </r>
       <r>    13.7012     0.0000    60.0000 </r>
       <r>    13.8179     0.0000    60.0000 </r>
       <r>    13.9346     0.0000    60.0000 </r>
       <r>    14.0513     0.0000    60.0000 </r>
       <r>    14.1680     0.0000    60.0000 </r>
       <r>    14.2847     0.0000    60.0000 </r>
       <r>    14.4014     0.0000    60.0000 </r>
       <r>    14.5181     0.0000    60.0000 </r>
       <r>    14.6348     0.0000    60.0000 </r>
      </set>
     </set>
    </array>
   </total>
  </dos>
 </calculation>
 <structure name="finalpos" >
  <crystal>
   <varray name="basis" >
    <v>       4.91380000       0.00000000       0.00000000 </v>
    <v>      -2.45690000       4.25547563       0.00000000 </v>
    <v>       0.00000000       0.00000000       5.40520000 </v>
   </varray>
   <i name="volume">    113.02573808 </i>
   <varray name="rec_basis" >
    <v>       0.20350849       0.11749568       0.00000000 </v>
    <v>       0.00000000       0.23499136       0.00000000 </v>
    <v>       0.00000000       0.00000000       0.18500703 </v>
   </varray>
  </crystal>
  <varray name="positions" >
   <v>       0.46980000       0.00000000       0.66666667 </v>
   <v>       0.53020000       0.53020000       0.00000000 </v>
   <v>       0.00000000       0.46980000       0.33333333 </v>
   <v>       0.41450000       0.26620000       0.78560000 </v>
   <v>       0.58550000       0.85170000       0.88106667 </v>
   <v>       0.14830000       0.73380000       0.54773333 </v>
   <v>       0.26620000       0.41450000       0.21440000 </v>
   <v>       0.85170000       0.58550000       0.11893333 </v>
   <v>       0.73380000       0.14830000       0.45226667 </v>
  </varray>
 </structure>
</modeling>
