   9   9   0   0
  0.1255842E+02  0.4913800E-09  0.4913800E-09  0.5405200E-09  0.5000000E-15
  1.000000000000000E-004
  CAR 
 unknown system                          
     14.72209810    -20.37233996  301      1.18149408      1.00000000
    -20.372  0.0000E+00  0.0000E+00
    -20.255  0.0000E+00  0.0000E+00
    -20.138  0.0000E+00  0.0000E+00
    -20.021  0.0000E+00  0.0000E+00
    -19.904  0.0000E+00  0.0000E+00
    -19.787  0.0000E+00  0.0000E+00
    -19.670  0.0000E+00  0.0000E+00
    -19.553  0.0000E+00  0.0000E+00
    -19.436  0.0000E+00  0.0000E+00
    -19.320  0.0000E+00  0.0000E+00
    -19.203  0.0000E+00  0.0000E+00
    -19.086  0.0000E+00  0.0000E+00
    -18.969  0.0000E+00  0.0000E+00
    -18.852  0.0000E+00  0.0000E+00
    -18.735  0.0000E+00  0.0000E+00
    -18.618  0.0000E+00  0.0000E+00
    -18.501  0.0000E+00  0.0000E+00
    -18.384  0.0000E+00  0.0000E+00
    -18.267  0.1119E+01  0.4809E-01
    -18.150  0.1830E+01  0.2145E+00
    -18.033  0.3438E+01  0.4967E+00
    -17.916  0.5133E+01  0.9987E+00
    -17.799  0.4528E+01  0.1900E+01
    -17.682  0.1402E+01  0.2021E+01
    -17.565  0.1760E+01  0.2177E+01
    -17.448  0.4370E+01  0.2494E+01
    -17.331  0.4666E+01  0.3486E+01
    -17.214  0.1583E+01  0.3797E+01
    -17.097  0.7246E+00  0.3924E+01
    -16.980  0.8045E+00  0.3997E+01
    -16.863  0.5202E+01  0.4264E+01
    -16.746  0.4728E+01  0.5232E+01
    -16.629  0.2216E+01  0.5593E+01
    -16.512  0.1348E+01  0.5793E+01
    -16.395  0.8194E+00  0.5921E+01
    -16.278  0.2850E+00  0.5993E+01
    -16.161  0.2811E+02  0.1158E+02
    -16.044  0.0000E+00  0.1200E+02
    -15.927  0.0000E+00  0.1200E+02
    -15.810  0.0000E+00  0.1200E+02
    -15.693  0.0000E+00  0.1200E+02
    -15.576  0.0000E+00  0.1200E+02
    -15.459  0.0000E+00  0.1200E+02
    -15.342  0.0000E+00  0.1200E+02
    -15.225  0.0000E+00  0.1200E+02
    -15.108  0.0000E+00  0.1200E+02
    -14.991  0.0000E+00  0.1200E+02
    -14.874  0.0000E+00  0.1200E+02
    -14.757  0.0000E+00  0.1200E+02
    -14.640  0.0000E+00  0.1200E+02
    -14.523  0.0000E+00  0.1200E+02
    -14.406  0.0000E+00  0.1200E+02
    -14.289  0.0000E+00  0.1200E+02
    -14.172  0.0000E+00  0.1200E+02
    -14.055  0.0000E+00  0.1200E+02
    -13.938  0.0000E+00  0.1200E+02
    -13.821  0.0000E+00  0.1200E+02
    -13.704  0.0000E+00  0.1200E+02
    -13.587  0.0000E+00  0.1200E+02
    -13.470  0.0000E+00  0.1200E+02
    -13.353  0.0000E+00  0.1200E+02
    -13.236  0.0000E+00  0.1200E+02
    -13.119  0.0000E+00  0.1200E+02
    -13.003  0.0000E+00  0.1200E+02
    -12.886  0.0000E+00  0.1200E+02
    -12.769  0.0000E+00  0.1200E+02
    -12.652  0.0000E+00  0.1200E+02
    -12.535  0.0000E+00  0.1200E+02
    -12.418  0.0000E+00  0.1200E+02
    -12.301  0.0000E+00  0.1200E+02
    -12.184  0.0000E+00  0.1200E+02
    -12.067  0.0000E+00  0.1200E+02
    -11.950  0.0000E+00  0.1200E+02
    -11.833  0.0000E+00  0.1200E+02
    -11.716  0.0000E+00  0.1200E+02
    -11.599  0.0000E+00  0.1200E+02
    -11.482  0.0000E+00  0.1200E+02
    -11.365  0.0000E+00  0.1200E+02
    -11.248  0.0000E+00  0.1200E+02
    -11.131  0.0000E+00  0.1200E+02
    -11.014  0.0000E+00  0.1200E+02
    -10.897  0.0000E+00  0.1200E+02
    -10.780  0.0000E+00  0.1200E+02
    -10.663  0.0000E+00  0.1200E+02
    -10.546  0.0000E+00  0.1200E+02
    -10.429  0.0000E+00  0.1200E+02
    -10.312  0.0000E+00  0.1200E+02
    -10.195  0.0000E+00  0.1200E+02
    -10.078  0.0000E+00  0.1200E+02
     -9.961  0.0000E+00  0.1200E+02
     -9.844  0.0000E+00  0.1200E+02
     -9.727  0.0000E+00  0.1200E+02
     -9.610  0.0000E+00  0.1200E+02
     -9.493  0.0000E+00  0.1200E+02
     -9.376  0.0000E+00  0.1200E+02
     -9.259  0.0000E+00  0.1200E+02
     -9.142  0.0000E+00  0.1200E+02
     -9.025  0.0000E+00  0.1200E+02
     -8.908  0.0000E+00  0.1200E+02
     -8.791  0.0000E+00  0.1200E+02
     -8.674  0.0000E+00  0.1200E+02
     -8.557  0.0000E+00  0.1200E+02
     -8.440  0.0000E+00  0.1200E+02
     -8.323  0.0000E+00  0.1200E+02
     -8.206  0.4256E-01  0.1200E+02
     -8.089  0.3305E+00  0.1202E+02
     -7.972  0.4762E+00  0.1207E+02
     -7.855  0.6911E+00  0.1214E+02
     -7.738  0.8920E+00  0.1223E+02
     -7.621  0.1245E+01  0.1235E+02
     -7.504  0.1737E+01  0.1253E+02
     -7.387  0.3368E+01  0.1280E+02
     -7.270  0.4334E+01  0.1359E+02
     -7.153  0.8502E+00  0.1390E+02
     -7.036  0.4432E+00  0.1397E+02
     -6.919  0.2392E+00  0.1401E+02
     -6.802  0.2772E+00  0.1404E+02
     -6.686  0.4273E+00  0.1408E+02
     -6.569  0.6771E+00  0.1414E+02
     -6.452  0.1154E+01  0.1425E+02
     -6.335  0.1919E+01  0.1443E+02
     -6.218  0.5855E+01  0.1487E+02
     -6.101  0.2838E+01  0.1541E+02
     -5.984  0.1563E+01  0.1566E+02
     -5.867  0.9766E+00  0.1581E+02
     -5.750  0.6573E+00  0.1590E+02
     -5.633  0.6901E+00  0.1597E+02
     -5.516  0.8062E-01  0.1600E+02
     -5.399  0.1807E+01  0.1610E+02
     -5.282  0.3681E+01  0.1642E+02
     -5.165  0.2886E+01  0.1680E+02
     -5.048  0.2914E+01  0.1714E+02
     -4.931  0.2144E+01  0.1743E+02
     -4.814  0.1492E+01  0.1764E+02
     -4.697  0.1088E+01  0.1779E+02
     -4.580  0.7434E+00  0.1790E+02
     -4.463  0.1419E+01  0.1799E+02
     -4.346  0.1935E+02  0.1885E+02
     -4.229  0.9311E+01  0.2029E+02
     -4.112  0.6219E+01  0.2107E+02
     -3.995  0.4599E+01  0.2178E+02
     -3.878  0.7988E+01  0.2228E+02
     -3.761  0.6896E+01  0.2319E+02
     -3.644  0.3225E+01  0.2377E+02
     -3.527  0.4308E+00  0.2399E+02
     -3.410  0.0000E+00  0.2400E+02
     -3.293  0.0000E+00  0.2400E+02
     -3.176  0.0000E+00  0.2400E+02
     -3.059  0.0000E+00  0.2400E+02
     -2.942  0.0000E+00  0.2400E+02
     -2.825  0.0000E+00  0.2400E+02
     -2.708  0.0000E+00  0.2400E+02
     -2.591  0.0000E+00  0.2400E+02
     -2.474  0.0000E+00  0.2400E+02
     -2.357  0.0000E+00  0.2400E+02
     -2.240  0.0000E+00  0.2400E+02
     -2.123  0.9722E+01  0.2428E+02
     -2.006  0.8832E+01  0.2570E+02
     -1.889  0.5422E+01  0.2641E+02
     -1.772  0.7440E+01  0.2724E+02
     -1.655  0.7475E+01  0.2801E+02
     -1.538  0.1045E+02  0.2882E+02
     -1.421  0.5195E+01  0.2974E+02
     -1.304  0.1170E+01  0.3003E+02
     -1.187  0.1544E+02  0.3085E+02
     -1.070  0.2639E+01  0.3184E+02
     -0.953  0.1523E+02  0.3247E+02
     -0.836  0.1253E+01  0.3387E+02
     -0.719  0.3673E+01  0.3413E+02
     -0.602  0.6507E+01  0.3484E+02
     -0.485  0.1080E+02  0.3595E+02
     -0.369  0.7424E+01  0.3724E+02
     -0.252  0.4691E+01  0.3785E+02
     -0.135  0.1153E+02  0.3878E+02
     -0.018  0.5844E+01  0.3993E+02
      0.099  0.1267E+02  0.4074E+02
      0.216  0.0000E+00  0.4200E+02
      0.333  0.1050E+02  0.4239E+02
      0.450  0.4103E+01  0.4361E+02
      0.567  0.4289E+01  0.4412E+02
      0.684  0.6706E+01  0.4473E+02
      0.801  0.9858E+01  0.4579E+02
      0.918  0.7530E+01  0.4656E+02
      1.035  0.8666E+01  0.4782E+02
      1.152  0.0000E+00  0.4800E+02
      1.269  0.0000E+00  0.4800E+02
      1.386  0.0000E+00  0.4800E+02
      1.503  0.0000E+00  0.4800E+02
      1.620  0.0000E+00  0.4800E+02
      1.737  0.0000E+00  0.4800E+02
      1.854  0.0000E+00  0.4800E+02
      1.971  0.0000E+00  0.4800E+02
      2.088  0.0000E+00  0.4800E+02
      2.205  0.0000E+00  0.4800E+02
      2.322  0.0000E+00  0.4800E+02
      2.439  0.0000E+00  0.4800E+02
      2.556  0.0000E+00  0.4800E+02
      2.673  0.0000E+00  0.4800E+02
      2.790  0.0000E+00  0.4800E+02
      2.907  0.0000E+00  0.4800E+02
      3.024  0.0000E+00  0.4800E+02
      3.141  0.0000E+00  0.4800E+02
      3.258  0.0000E+00  0.4800E+02
      3.375  0.0000E+00  0.4800E+02
      3.492  0.0000E+00  0.4800E+02
      3.609  0.0000E+00  0.4800E+02
      3.726  0.0000E+00  0.4800E+02
      3.843  0.0000E+00  0.4800E+02
      3.960  0.0000E+00  0.4800E+02
      4.077  0.0000E+00  0.4800E+02
      4.194  0.0000E+00  0.4800E+02
      4.311  0.0000E+00  0.4800E+02
      4.428  0.0000E+00  0.4800E+02
      4.545  0.0000E+00  0.4800E+02
      4.662  0.0000E+00  0.4800E+02
      4.779  0.0000E+00  0.4800E+02
      4.896  0.0000E+00  0.4800E+02
      5.013  0.0000E+00  0.4800E+02
      5.130  0.0000E+00  0.4800E+02
      5.247  0.0000E+00  0.4800E+02
      5.364  0.0000E+00  0.4800E+02
      5.481  0.0000E+00  0.4800E+02
      5.598  0.0000E+00  0.4800E+02
      5.715  0.0000E+00  0.4800E+02
      5.832  0.0000E+00  0.4800E+02
      5.948  0.0000E+00  0.4800E+02
      6.065  0.0000E+00  0.4800E+02
      6.182  0.0000E+00  0.4800E+02
      6.299  0.0000E+00  0.4800E+02
      6.416  0.0000E+00  0.4800E+02
      6.533  0.0000E+00  0.4800E+02
      6.650  0.0000E+00  0.4800E+02
      6.767  0.0000E+00  0.4800E+02
      6.884  0.0000E+00  0.4800E+02
      7.001  0.0000E+00  0.4800E+02
      7.118  0.0000E+00  0.4800E+02
      7.235  0.1342E-01  0.4800E+02
      7.352  0.5434E-01  0.4800E+02
      7.469  0.1228E+00  0.4801E+02
      7.586  0.2089E+00  0.4803E+02
      7.703  0.2549E+00  0.4806E+02
      7.820  0.2824E+00  0.4809E+02
      7.937  0.3100E+00  0.4813E+02
      8.054  0.3571E+00  0.4817E+02
      8.171  0.4069E+00  0.4821E+02
      8.288  0.4594E+00  0.4826E+02
      8.405  0.5142E+00  0.4832E+02
      8.522  0.5956E+00  0.4838E+02
      8.639  0.7530E+00  0.4846E+02
      8.756  0.8551E+00  0.4856E+02
      8.873  0.8515E+00  0.4865E+02
      8.990  0.9144E+00  0.4876E+02
      9.107  0.9794E+00  0.4887E+02
      9.224  0.1046E+01  0.4899E+02
      9.341  0.1480E+01  0.4913E+02
      9.458  0.1481E+01  0.4931E+02
      9.575  0.1257E+01  0.4946E+02
      9.692  0.1330E+01  0.4961E+02
      9.809  0.1514E+01  0.4978E+02
      9.926  0.2090E+01  0.4998E+02
     10.043  0.1166E+01  0.5016E+02
     10.160  0.1521E+01  0.5030E+02
     10.277  0.4458E+01  0.5061E+02
     10.394  0.1007E+02  0.5164E+02
     10.511  0.3883E+01  0.5225E+02
     10.628  0.7678E+01  0.5291E+02
     10.745  0.7493E+01  0.5382E+02
     10.862  0.2920E+01  0.5441E+02
     10.979  0.3586E+01  0.5473E+02
     11.096  0.7684E+01  0.5538E+02
     11.213  0.3047E+01  0.5602E+02
     11.330  0.6705E+01  0.5668E+02
     11.447  0.7683E+01  0.5755E+02
     11.564  0.1679E+01  0.5803E+02
     11.681  0.1541E+02  0.5843E+02
     11.798  0.2166E+01  0.5961E+02
     11.915  0.9427E+00  0.5978E+02
     12.032  0.5602E+00  0.5986E+02
     12.149  0.3979E+00  0.5992E+02
     12.265  0.2645E+00  0.5996E+02
     12.382  0.1499E+00  0.5998E+02
     12.499  0.6428E-01  0.6000E+02
     12.616  0.1448E-01  0.6000E+02
     12.733  0.0000E+00  0.6000E+02
     12.850  0.0000E+00  0.6000E+02
     12.967  0.0000E+00  0.6000E+02
     13.084  0.0000E+00  0.6000E+02
     13.201  0.0000E+00  0.6000E+02
     13.318  0.0000E+00  0.6000E+02
     13.435  0.0000E+00  0.6000E+02
     13.552  0.0000E+00  0.6000E+02
     13.669  0.0000E+00  0.6000E+02
     13.786  0.0000E+00  0.6000E+02
     13.903  0.0000E+00  0.6000E+02
     14.020  0.0000E+00  0.6000E+02
     14.137  0.0000E+00  0.6000E+02
     14.254  0.0000E+00  0.6000E+02
     14.371  0.0000E+00  0.6000E+02
     14.488  0.0000E+00  0.6000E+02
     14.605  0.0000E+00  0.6000E+02
     14.722  0.0000E+00  0.6000E+02
