       N       E                     dE             d eps       ncg     rms          rms(c)
DAV:   1     0.409219363615E+03    0.40922E+03   -0.34232E+04  1620   0.228E+03
DAV:   2    -0.531565341597E+02   -0.46238E+03   -0.45137E+03  2150   0.399E+02
DAV:   3    -0.802990218518E+02   -0.27142E+02   -0.27040E+02  1938   0.104E+02
DAV:   4    -0.806723213476E+02   -0.37330E+00   -0.37258E+00  1952   0.132E+01
DAV:   5    -0.806787247750E+02   -0.64034E-02   -0.64016E-02  1878   0.173E+00    0.188E+01
RMM:   6    -0.710815806688E+02    0.95971E+01   -0.40400E+01  1723   0.330E+01    0.513E+00
RMM:   7    -0.710516827249E+02    0.29898E-01   -0.15012E+00  1902   0.557E+00    0.339E+00
RMM:   8    -0.710674091703E+02   -0.15726E-01   -0.25483E-01  1829   0.415E+00    0.624E-01
RMM:   9    -0.710604464131E+02    0.69628E-02   -0.55989E-02  1933   0.122E+00    0.133E-01
RMM:  10    -0.710634013841E+02   -0.29550E-02   -0.13626E-02  1893   0.617E-01    0.227E-01
RMM:  11    -0.710621280339E+02    0.12734E-02   -0.25497E-03  1934   0.287E-01    0.621E-02
RMM:  12    -0.710620843210E+02    0.43713E-04   -0.77427E-04  1925   0.145E-01    0.794E-03
RMM:  13    -0.710620853565E+02   -0.10355E-05   -0.19631E-05  1297   0.262E-02
   1 F= -.71062085E+02 E0= -.71062085E+02  d E =0.000000E+00
