<?xml version="1.0" encoding="ISO-8859-1"?>
<modeling>
 <generator>
  <i name="program" type="string">vasp </i>
  <i name="version" type="string">5.4.4.18Apr17-6-g9f103f2a35  </i>
  <i name="subversion" type="string">(build Jul 15 2019 14:02:39) complex            parallel </i>
  <i name="platform" type="string">TEST </i>
  <i name="date" type="string">2024 09 18 </i>
  <i name="time" type="string">14:38:16 </i>
 </generator>
 <incar>
  <i type="string" name="PREC">normal    ! low/normal/accurate</i>
  <i type="string" name="ALGO"> Fast      ! Algorithm for electronic re</i>
  <i type="int" name="ISPIN">     1</i>
  <i type="int" name="NELMIN">     4</i>
  <i name="EDIFF">      0.00001000</i>
  <i type="int" name="NSW">     0</i>
  <i name="ENCUT">    900.00000000</i>
  <i type="string" name="LREAL"> Auto      ! Projection in reciprocal sp</i>
  <i type="int" name="ISMEAR">    -5</i>
  <i name="SIGMA">      0.20000000</i>
  <i type="logical" name="LWAVE"> F  </i>
  <v type="int" name="KPOINT_BSE">    -1     0     0     0</v>
 </incar>
 <structure name="primitive_cell" >
  <crystal>
   <varray name="basis" >
    <v>       4.91380000       0.00000000       0.00000000 </v>
    <v>      -2.45690000       4.25547563       0.00000000 </v>
    <v>       0.00000000       0.00000000       5.40520000 </v>
   </varray>
   <i name="volume">    113.02573808 </i>
   <varray name="rec_basis" >
    <v>       0.20350849       0.11749568       0.00000000 </v>
    <v>       0.00000000       0.23499136       0.00000000 </v>
    <v>       0.00000000       0.00000000       0.18500703 </v>
   </varray>
  </crystal>
  <varray name="positions" >
   <v>       0.46980000       0.00000000      -0.33333333 </v>
   <v>       0.14830000      -0.26620000      -0.45226667 </v>
   <v>       0.41450000       0.26620000      -0.21440000 </v>
   <v>      -0.26620000       0.14830000       0.45226667 </v>
   <v>      -0.41450000      -0.14830000      -0.11893333 </v>
   <v>       0.00000000       0.46980000       0.33333333 </v>
   <v>      -0.46980000      -0.46980000       0.00000000 </v>
   <v>       0.26620000       0.41450000       0.21440000 </v>
   <v>      -0.14830000      -0.41450000       0.11893333 </v>
  </varray>
 </structure>
 <varray name="primitive_index" >
  <v type="int" >        1 </v>
  <v type="int" >        6 </v>
  <v type="int" >        4 </v>
  <v type="int" >        9 </v>
  <v type="int" >        5 </v>
  <v type="int" >        3 </v>
  <v type="int" >        2 </v>
  <v type="int" >        7 </v>
  <v type="int" >        8 </v>
 </varray>
 <kpoints>
  <generation param="Gamma">
   <v type="int" name="divisions">       6        6        5 </v>
   <v name="usershift">      0.00000000       0.00000000       0.00000000 </v>
   <v name="genvec1">      0.16666667      -0.00000000       0.00000000 </v>
   <v name="genvec2">      0.00000000       0.16666667       0.00000000 </v>
   <v name="genvec3">      0.00000000       0.00000000       0.20000000 </v>
   <v name="shift">      0.00000000       0.00000000       0.00000000 </v>
  </generation>
  <varray name="kpointlist" >
   <v>       0.00000000       0.00000000       0.00000000 </v>
   <v>       0.16666667       0.00000000       0.00000000 </v>
   <v>       0.33333333       0.00000000       0.00000000 </v>
   <v>       0.50000000       0.00000000       0.00000000 </v>
   <v>       0.16666667       0.16666667       0.00000000 </v>
   <v>       0.33333333       0.16666667       0.00000000 </v>
   <v>       0.33333333       0.33333333       0.00000000 </v>
   <v>       0.00000000       0.00000000       0.20000000 </v>
   <v>       0.16666667       0.00000000       0.20000000 </v>
   <v>       0.33333333       0.00000000       0.20000000 </v>
   <v>       0.50000000       0.00000000       0.20000000 </v>
   <v>      -0.33333333       0.00000000       0.20000000 </v>
   <v>      -0.16666667       0.00000000       0.20000000 </v>
   <v>       0.16666667       0.16666667       0.20000000 </v>
   <v>       0.33333333       0.16666667       0.20000000 </v>
   <v>       0.50000000       0.16666667       0.20000000 </v>
   <v>       0.33333333       0.33333333       0.20000000 </v>
   <v>       0.00000000       0.00000000       0.40000000 </v>
   <v>       0.16666667       0.00000000       0.40000000 </v>
   <v>       0.33333333       0.00000000       0.40000000 </v>
   <v>       0.50000000       0.00000000       0.40000000 </v>
   <v>      -0.33333333       0.00000000       0.40000000 </v>
   <v>      -0.16666667       0.00000000       0.40000000 </v>
   <v>       0.16666667       0.16666667       0.40000000 </v>
   <v>       0.33333333       0.16666667       0.40000000 </v>
   <v>       0.50000000       0.16666667       0.40000000 </v>
   <v>       0.33333333       0.33333333       0.40000000 </v>
  </varray>
  <varray name="weights" >
   <v>       0.00555556 </v>
   <v>       0.03333333 </v>
   <v>       0.03333333 </v>
   <v>       0.01666667 </v>
   <v>       0.03333333 </v>
   <v>       0.06666667 </v>
   <v>       0.01111111 </v>
   <v>       0.01111111 </v>
   <v>       0.03333333 </v>
   <v>       0.03333333 </v>
   <v>       0.03333333 </v>
   <v>       0.03333333 </v>
   <v>       0.03333333 </v>
   <v>       0.06666667 </v>
   <v>       0.06666667 </v>
   <v>       0.06666667 </v>
   <v>       0.02222222 </v>
   <v>       0.01111111 </v>
   <v>       0.03333333 </v>
   <v>       0.03333333 </v>
   <v>       0.03333333 </v>
   <v>       0.03333333 </v>
   <v>       0.03333333 </v>
   <v>       0.06666667 </v>
   <v>       0.06666667 </v>
   <v>       0.06666667 </v>
   <v>       0.02222222 </v>
  </varray>
  <varray name="tetrahedronlist"  type="int" >
   <v type="int" >        4        2        2        5       13 </v>
   <v type="int" >        4        1        2        2       13 </v>
   <v type="int" >        4        1        2        8       13 </v>
   <v type="int" >        4        2        5       13       14 </v>
   <v type="int" >        8        2        9       13       14 </v>
   <v type="int" >        8        2        8        9       13 </v>
   <v type="int" >        8        3        5        6       14 </v>
   <v type="int" >        8        2        3        5       14 </v>
   <v type="int" >        4        2        3        9       14 </v>
   <v type="int" >        4        3        6       14       15 </v>
   <v type="int" >        4        3       10       14       15 </v>
   <v type="int" >        4        3        9       10       14 </v>
   <v type="int" >        4        4        6        6       15 </v>
   <v type="int" >        4        3        4        6       15 </v>
   <v type="int" >        4        3        4       10       15 </v>
   <v type="int" >        4        4        6       15       16 </v>
   <v type="int" >        4        4       11       15       16 </v>
   <v type="int" >        4        4       10       11       15 </v>
   <v type="int" >        4        3        5        6       16 </v>
   <v type="int" >        4        3        4        6       16 </v>
   <v type="int" >        4        3        4       11       16 </v>
   <v type="int" >        4        3        5       14       16 </v>
   <v type="int" >        4        3       12       14       16 </v>
   <v type="int" >        4        3       11       12       16 </v>
   <v type="int" >        4        2        2        5       14 </v>
   <v type="int" >        4        2        3       12       14 </v>
   <v type="int" >        4        2        2        9       14 </v>
   <v type="int" >        4        2       12       13       14 </v>
   <v type="int" >        4        1        2        2        9 </v>
   <v type="int" >        4        1        2        9       13 </v>
   <v type="int" >        4        1        8        9       13 </v>
   <v type="int" >        4        3        5        6       12 </v>
   <v type="int" >        4        2        3        5       12 </v>
   <v type="int" >        4        2        5       12       13 </v>
   <v type="int" >        4        5        6       12       16 </v>
   <v type="int" >        4        5       12       14       16 </v>
   <v type="int" >        4        5       12       13       14 </v>
   <v type="int" >        8        6        6        7       16 </v>
   <v type="int" >        4        5        6        6       16 </v>
   <v type="int" >        4        5        6       14       16 </v>
   <v type="int" >        8        6        7       16       17 </v>
   <v type="int" >       16        6       15       16       17 </v>
   <v type="int" >        8        6       14       15       16 </v>
   <v type="int" >        8        6        6        7       17 </v>
   <v type="int" >        8        6        6       15       17 </v>
   <v type="int" >        4        3        5        6       15 </v>
   <v type="int" >        4        5        6        6       15 </v>
   <v type="int" >        4        5        6       15       16 </v>
   <v type="int" >        4        3        5       10       15 </v>
   <v type="int" >        4        5       10       14       15 </v>
   <v type="int" >        4        5       14       15       16 </v>
   <v type="int" >        4        2        3        5       10 </v>
   <v type="int" >        4        2        5       10       14 </v>
   <v type="int" >        4        2        9       10       14 </v>
   <v type="int" >        4        4        6        6       11 </v>
   <v type="int" >        8        3        4        6       11 </v>
   <v type="int" >        4        3        6       11       12 </v>
   <v type="int" >        4        6        6       11       15 </v>
   <v type="int" >        8        6       11       15       16 </v>
   <v type="int" >        4        6       11       12       16 </v>
   <v type="int" >        8        6        6        7       15 </v>
   <v type="int" >        8        6        7       15       16 </v>
   <v type="int" >        8        7       15       16       17 </v>
   <v type="int" >        4        4        6        6       16 </v>
   <v type="int" >        4        4        6       11       16 </v>
   <v type="int" >        4        3        6       11       15 </v>
   <v type="int" >        4        3       10       11       15 </v>
   <v type="int" >        4        3        5        6       10 </v>
   <v type="int" >        4        3        4        6       10 </v>
   <v type="int" >        4        4        6       10       11 </v>
   <v type="int" >        4        5        6       10       14 </v>
   <v type="int" >        4        6       10       14       15 </v>
   <v type="int" >        4        6       10       11       15 </v>
   <v type="int" >        4        5        6        6       14 </v>
   <v type="int" >        4        6        6       14       15 </v>
   <v type="int" >        4        3        6       12       14 </v>
   <v type="int" >        4        6       12       14       16 </v>
   <v type="int" >        4        3        4        6       12 </v>
   <v type="int" >        4        4        6       12       16 </v>
   <v type="int" >        4        4       11       12       16 </v>
   <v type="int" >        4        2        2        5        9 </v>
   <v type="int" >        4        2        3        5        9 </v>
   <v type="int" >        4        3        5        9       10 </v>
   <v type="int" >        4        2        5        9       13 </v>
   <v type="int" >        4        5        9       13       14 </v>
   <v type="int" >        4        5        9       10       14 </v>
   <v type="int" >        4        2        3        5       13 </v>
   <v type="int" >        4        3        5       13       14 </v>
   <v type="int" >        4        3       12       13       14 </v>
   <v type="int" >        4        1        2        2        8 </v>
   <v type="int" >        4        2        2        8        9 </v>
   <v type="int" >        4        9       13       14       23 </v>
   <v type="int" >        4        8        9       13       23 </v>
   <v type="int" >        4        8        9       18       23 </v>
   <v type="int" >        4        9       14       23       24 </v>
   <v type="int" >        4        9       19       23       24 </v>
   <v type="int" >        4        9       18       19       23 </v>
   <v type="int" >        4       10       14       15       24 </v>
   <v type="int" >        4        9       10       14       24 </v>
   <v type="int" >        4        9       10       19       24 </v>
   <v type="int" >        4       10       15       24       25 </v>
   <v type="int" >        4       10       20       24       25 </v>
   <v type="int" >        4       10       19       20       24 </v>
   <v type="int" >        4       11       15       16       25 </v>
   <v type="int" >        4       10       11       15       25 </v>
   <v type="int" >        4       10       11       20       25 </v>
   <v type="int" >        4       11       16       25       26 </v>
   <v type="int" >        4       11       21       25       26 </v>
   <v type="int" >        4       11       20       21       25 </v>
   <v type="int" >        4       12       14       16       26 </v>
   <v type="int" >        4       11       12       16       26 </v>
   <v type="int" >        4       11       12       21       26 </v>
   <v type="int" >        4       12       14       24       26 </v>
   <v type="int" >        4       12       22       24       26 </v>
   <v type="int" >        4       12       21       22       26 </v>
   <v type="int" >        4        9       13       14       24 </v>
   <v type="int" >        4       12       13       14       24 </v>
   <v type="int" >        4       12       13       22       24 </v>
   <v type="int" >        4        9       13       19       24 </v>
   <v type="int" >        4       13       19       23       24 </v>
   <v type="int" >        4       13       22       23       24 </v>
   <v type="int" >        4        8        9       13       19 </v>
   <v type="int" >        4        8       13       19       23 </v>
   <v type="int" >        4        8       18       19       23 </v>
   <v type="int" >        4       12       14       16       22 </v>
   <v type="int" >        4       12       13       14       22 </v>
   <v type="int" >        4       13       14       22       23 </v>
   <v type="int" >        4       14       16       22       26 </v>
   <v type="int" >        4       14       22       24       26 </v>
   <v type="int" >        4       14       22       23       24 </v>
   <v type="int" >        8       15       16       17       26 </v>
   <v type="int" >        4       14       15       16       26 </v>
   <v type="int" >        4       14       15       24       26 </v>
   <v type="int" >        8       15       17       26       27 </v>
   <v type="int" >        8       15       25       26       27 </v>
   <v type="int" >        4       15       24       25       26 </v>
   <v type="int" >        8       15       16       17       27 </v>
   <v type="int" >        8       15       16       25       27 </v>
   <v type="int" >        8       16       25       26       27 </v>
   <v type="int" >        4       10       14       15       25 </v>
   <v type="int" >        4       14       15       16       25 </v>
   <v type="int" >        4       14       16       25       26 </v>
   <v type="int" >        4       10       14       20       25 </v>
   <v type="int" >        4       14       20       24       25 </v>
   <v type="int" >        4       14       24       25       26 </v>
   <v type="int" >        4        9       10       14       20 </v>
   <v type="int" >        4        9       14       20       24 </v>
   <v type="int" >        4        9       19       20       24 </v>
   <v type="int" >        4       11       15       16       21 </v>
   <v type="int" >        4       11       12       16       21 </v>
   <v type="int" >        4       12       16       21       22 </v>
   <v type="int" >        4       15       16       21       25 </v>
   <v type="int" >        4       16       21       25       26 </v>
   <v type="int" >        4       16       21       22       26 </v>
   <v type="int" >        8       15       16       17       25 </v>
   <v type="int" >        8       16       17       25       26 </v>
   <v type="int" >        8       17       25       26       27 </v>
   <v type="int" >        4       11       15       16       26 </v>
   <v type="int" >        4       11       15       21       26 </v>
   <v type="int" >        4       15       21       25       26 </v>
   <v type="int" >        4       10       11       15       21 </v>
   <v type="int" >        4       10       15       21       25 </v>
   <v type="int" >        4       10       20       21       25 </v>
   <v type="int" >        4       10       14       15       20 </v>
   <v type="int" >        4       10       11       15       20 </v>
   <v type="int" >        4       11       15       20       21 </v>
   <v type="int" >        4       14       15       20       24 </v>
   <v type="int" >        4       15       20       24       25 </v>
   <v type="int" >        4       15       20       21       25 </v>
   <v type="int" >        4       12       14       16       24 </v>
   <v type="int" >        4       14       15       16       24 </v>
   <v type="int" >        4       15       16       24       25 </v>
   <v type="int" >        4       12       16       22       24 </v>
   <v type="int" >        4       16       22       24       26 </v>
   <v type="int" >        4       16       24       25       26 </v>
   <v type="int" >        4       11       12       16       22 </v>
   <v type="int" >        4       11       16       22       26 </v>
   <v type="int" >        4       11       21       22       26 </v>
   <v type="int" >        4        9       13       14       19 </v>
   <v type="int" >        4        9       10       14       19 </v>
   <v type="int" >        4       10       14       19       20 </v>
   <v type="int" >        4       13       14       19       23 </v>
   <v type="int" >        4       14       19       23       24 </v>
   <v type="int" >        4       14       19       20       24 </v>
   <v type="int" >        4       12       13       14       23 </v>
   <v type="int" >        4       12       14       23       24 </v>
   <v type="int" >        4       12       22       23       24 </v>
   <v type="int" >        4        8        9       13       18 </v>
   <v type="int" >        4        9       13       18       19 </v>
   <v type="int" >        4       13       18       19       23 </v>
   <v type="int" >        4       19       19       23       24 </v>
   <v type="int" >        4       18       19       19       23 </v>
   <v type="int" >        2       18       18       19       19 </v>
   <v type="int" >        2       19       19       24       24 </v>
   <v type="int" >        4       20       24       24       25 </v>
   <v type="int" >        4       19       20       24       24 </v>
   <v type="int" >        8       19       20       23       24 </v>
   <v type="int" >        8       20       24       25       26 </v>
   <v type="int" >        8       20       22       24       26 </v>
   <v type="int" >        8       20       22       23       24 </v>
   <v type="int" >        8       21       25       26       26 </v>
   <v type="int" >        8       20       21       25       26 </v>
   <v type="int" >        8       20       21       22       26 </v>
   <v type="int" >        4       21       21       25       26 </v>
   <v type="int" >        4       21       21       22       26 </v>
   <v type="int" >        4       22       24       25       26 </v>
   <v type="int" >        4       21       22       25       26 </v>
   <v type="int" >        4       21       21       22       25 </v>
   <v type="int" >        4       22       24       24       25 </v>
   <v type="int" >        4       20       22       24       25 </v>
   <v type="int" >        4       20       21       22       25 </v>
   <v type="int" >        4       19       23       24       24 </v>
   <v type="int" >        4       22       23       24       24 </v>
   <v type="int" >        8       19       23       23       24 </v>
   <v type="int" >        8       18       19       23       23 </v>
   <v type="int" >        4       18       18       19       23 </v>
   <v type="int" >        8       25       25       26       27 </v>
   <v type="int" >        4       24       25       25       26 </v>
   <v type="int" >        2       24       24       25       25 </v>
   <v type="int" >        4       25       25       27       27 </v>
   <v type="int" >        8       25       26       27       27 </v>
   <v type="int" >       16       25       26       26       27 </v>
   <v type="int" >        8       24       25       26       26 </v>
   <v type="int" >        4       22       24       24       26 </v>
   <v type="int" >        4       24       24       25       26 </v>
   <v type="int" >        4       19       20       22       24 </v>
   <v type="int" >        4       19       22       24       24 </v>
   <v type="int" >        4       19       22       23       24 </v>
   <v type="int" >        4       21       25       25       26 </v>
   <v type="int" >        2       21       21       25       25 </v>
   <v type="int" >        4       20       21       21       25 </v>
  </varray>
  <i name="volumeweight">      0.00092593 </i>
 </kpoints>
 <parameters>
  <separator name="general" >
   <i type="string" name="SYSTEM">unknown system</i>
   <i type="logical" name="LCOMPAT"> F  </i>
  </separator>
  <separator name="electronic" >
   <i type="string" name="PREC">normal</i>
   <i name="ENMAX">    900.00000000</i>
   <i name="ENAUG">    605.39200000</i>
   <i name="EDIFF">      0.00001000</i>
   <i type="int" name="IALGO">    68</i>
   <i type="int" name="IWAVPR">    10</i>
   <i type="int" name="NBANDS">    30</i>
   <i name="NELECT">     48.00000000</i>
   <i type="int" name="TURBO">     0</i>
   <i type="int" name="IRESTART">     0</i>
   <i type="int" name="NREBOOT">     0</i>
   <i type="int" name="NMIN">     0</i>
   <i name="EREF">      0.00000000</i>
   <separator name="electronic smearing" >
    <i type="int" name="ISMEAR">    -5</i>
    <i name="SIGMA">      0.20000000</i>
    <i name="KSPACING">      0.50000000</i>
    <i type="logical" name="KGAMMA"> T  </i>
   </separator>
   <separator name="electronic projectors" >
    <i type="logical" name="LREAL"> T  </i>
    <v name="ROPT">     -0.00050000     -0.00050000</v>
    <i type="int" name="LMAXPAW">  -100</i>
    <i type="int" name="LMAXMIX">     2</i>
    <i type="logical" name="NLSPLINE"> F  </i>
   </separator>
   <separator name="electronic startup" >
    <i type="int" name="ISTART">     0</i>
    <i type="int" name="ICHARG">     2</i>
    <i type="int" name="INIWAV">     1</i>
   </separator>
   <separator name="electronic spin" >
    <i type="int" name="ISPIN">     1</i>
    <i type="logical" name="LNONCOLLINEAR"> F  </i>
    <v name="MAGMOM">      1.00000000      1.00000000      1.00000000      1.00000000      1.00000000      1.00000000      1.00000000      1.00000000      1.00000000</v>
    <i name="NUPDOWN">     -1.00000000</i>
    <i type="logical" name="LSORBIT"> F  </i>
    <v name="SAXIS">      0.00000000      0.00000000      1.00000000</v>
    <i type="logical" name="LSPIRAL"> F  </i>
    <v name="QSPIRAL">      0.00000000      0.00000000      0.00000000</v>
    <i type="logical" name="LZEROZ"> F  </i>
   </separator>
   <separator name="electronic exchange-correlation" >
    <i type="logical" name="LASPH"> F  </i>
    <i type="logical" name="LMETAGGA"> F  </i>
   </separator>
   <separator name="electronic convergence" >
    <i type="int" name="NELM">    60</i>
    <i type="int" name="NELMDL">    -5</i>
    <i type="int" name="NELMIN">     4</i>
    <i name="ENINI">    900.00000000</i>
    <separator name="electronic convergence detail" >
     <i type="logical" name="LDIAG"> T  </i>
     <i type="logical" name="LSUBROT"> F  </i>
     <i name="WEIMIN">      0.00000000</i>
     <i name="EBREAK">      0.00000008</i>
     <i name="DEPER">      0.30000000</i>
     <i type="int" name="NRMM">     4</i>
     <i name="TIME">      0.40000000</i>
    </separator>
   </separator>
   <separator name="electronic mixer" >
    <i name="AMIX">      0.40000000</i>
    <i name="BMIX">      1.00000000</i>
    <i name="AMIN">      0.10000000</i>
    <i name="AMIX_MAG">      1.60000000</i>
    <i name="BMIX_MAG">      1.00000000</i>
    <separator name="electronic mixer details" >
     <i type="int" name="IMIX">     4</i>
     <i type="logical" name="MIXFIRST"> F  </i>
     <i type="int" name="MAXMIX">   -45</i>
     <i name="WC">    100.00000000</i>
     <i type="int" name="INIMIX">     1</i>
     <i type="int" name="MIXPRE">     1</i>
     <i type="int" name="MREMOVE">     5</i>
    </separator>
   </separator>
   <separator name="electronic dipolcorrection" >
    <i type="logical" name="LDIPOL"> F  </i>
    <i type="logical" name="LMONO"> F  </i>
    <i type="int" name="IDIPOL">     0</i>
    <i name="EPSILON">      1.00000000</i>
    <v name="DIPOL">   -100.00000000   -100.00000000   -100.00000000</v>
    <i name="EFIELD">      0.00000000</i>
   </separator>
  </separator>
  <separator name="grids" >
   <i type="int" name="NGX">    36</i>
   <i type="int" name="NGY">    36</i>
   <i type="int" name="NGZ">    40</i>
   <i type="int" name="NGXF">    72</i>
   <i type="int" name="NGYF">    72</i>
   <i type="int" name="NGZF">    80</i>
   <i type="logical" name="ADDGRID"> F  </i>
  </separator>
  <separator name="ionic" >
   <i type="int" name="NSW">     0</i>
   <i type="int" name="IBRION">    -1</i>
   <i type="int" name="MDALGO">     0</i>
   <i type="int" name="ISIF">     2</i>
   <i name="PSTRESS">      0.00000000</i>
   <i name="EDIFFG">      0.00010000</i>
   <i type="int" name="NFREE">     0</i>
   <i name="POTIM">      0.50000000</i>
   <i name="SMASS">     -3.00000000</i>
   <i name="SCALEE">      1.00000000</i>
  </separator>
  <separator name="ionic md" >
   <i name="TEBEG">      0.00010000</i>
   <i name="TEEND">      0.00010000</i>
   <i type="int" name="NBLOCK">     1</i>
   <i type="int" name="KBLOCK">     1</i>
   <i type="int" name="NPACO">   256</i>
   <i name="APACO">     16.00000000</i>
  </separator>
  <separator name="symmetry" >
   <i type="int" name="ISYM">     2</i>
   <i name="SYMPREC">      0.00001000</i>
  </separator>
  <separator name="dos" >
   <i type="int" name="LORBIT">     0</i>
   <v name="RWIGS">     -1.00000000     -1.00000000</v>
   <i type="int" name="NEDOS">   301</i>
   <i name="EMIN">     10.00000000</i>
   <i name="EMAX">    -10.00000000</i>
   <i name="EFERMI">      0.00000000</i>
  </separator>
  <separator name="writing" >
   <i type="int" name="NWRITE">     2</i>
   <i type="logical" name="LWAVE"> F  </i>
   <i type="logical" name="LDOWNSAMPLE"> F  </i>
   <i type="logical" name="LCHARG"> T  </i>
   <i type="logical" name="LPARD"> F  </i>
   <i type="logical" name="LVTOT"> F  </i>
   <i type="logical" name="LVHAR"> F  </i>
   <i type="logical" name="LELF"> F  </i>
   <i type="logical" name="LOPTICS"> F  </i>
   <v name="STM">      0.00000000      0.00000000      0.00000000      0.00000000      0.00000000      0.00000000      0.00000000</v>
  </separator>
  <separator name="performance" >
   <i type="int" name="NPAR">     2</i>
   <i type="int" name="NSIM">     4</i>
   <i type="int" name="NBLK">    -1</i>
   <i type="logical" name="LPLANE"> T  </i>
   <i type="logical" name="LSCALAPACK"> T  </i>
   <i type="logical" name="LSCAAWARE"> F  </i>
   <i type="logical" name="LSCALU"> F  </i>
   <i type="logical" name="LASYNC"> F  </i>
   <i type="logical" name="LORBITALREAL"> F  </i>
  </separator>
  <separator name="miscellaneous" >
   <i type="int" name="IDIOT">     3</i>
   <i type="int" name="ISPECIAL">     0</i>
   <i type="logical" name="LMUSIC"> F  </i>
   <v name="POMASS">     28.08500000     16.00000000</v>
   <v name="DARWINR">      0.00000000      0.00000000</v>
   <v name="DARWINV">      1.00000000      1.00000000</v>
   <i type="logical" name="LCORR"> T  </i>
  </separator>
  <i type="logical" name="GGA_COMPAT"> T  </i>
  <i type="logical" name="LBERRY"> F  </i>
  <i type="int" name="ICORELEVEL">     0</i>
  <i type="logical" name="LDAU"> F  </i>
  <i type="int" name="I_CONSTRAINED_M">     0</i>
  <separator name="electronic exchange-correlation" >
   <i type="string" name="GGA">--</i>
   <i type="int" name="VOSKOWN">     0</i>
   <i type="logical" name="LHFCALC"> F  </i>
   <i type="string" name="PRECFOCK"></i>
   <i type="logical" name="LSYMGRAD"> F  </i>
   <i type="logical" name="LHFONE"> F  </i>
   <i type="logical" name="LRHFCALC"> F  </i>
   <i type="logical" name="LTHOMAS"> F  </i>
   <i type="logical" name="LMODELHF"> F  </i>
   <i name="ENCUT4O">     -1.00000000</i>
   <i type="int" name="EXXOEP">     0</i>
   <i type="int" name="FOURORBIT">     0</i>
   <i name="AEXX">      0.00000000</i>
   <i name="HFALPHA">      0.00000000</i>
   <i name="MCALPHA">      0.00000000</i>
   <i name="ALDAX">      1.00000000</i>
   <i name="AGGAX">      1.00000000</i>
   <i name="ALDAC">      1.00000000</i>
   <i name="AGGAC">      1.00000000</i>
   <i type="int" name="NKREDX">     1</i>
   <i type="int" name="NKREDY">     1</i>
   <i type="int" name="NKREDZ">     1</i>
   <i type="logical" name="SHIFTRED"> F  </i>
   <i type="logical" name="ODDONLY"> F  </i>
   <i type="logical" name="EVENONLY"> F  </i>
   <i type="int" name="LMAXFOCK">     0</i>
   <i type="int" name="NMAXFOCKAE">     0</i>
   <i type="logical" name="LFOCKAEDFT"> F  </i>
   <i name="HFSCREEN">      0.00000000</i>
   <i name="HFSCREENC">      0.00000000</i>
   <i type="int" name="NBANDSGWLOW">     0</i>
  </separator>
  <separator name="vdW DFT" >
   <i type="logical" name="LUSE_VDW"> F  </i>
   <i name="Zab_VDW">     -0.84910000</i>
   <i name="PARAM1">      0.12340000</i>
   <i name="PARAM2">      1.00000000</i>
   <i name="PARAM3">      0.00000000</i>
  </separator>
  <separator name="model GW" >
   <i type="int" name="MODEL_GW">     0</i>
   <i name="MODEL_EPS0">      7.53504921</i>
   <i name="MODEL_ALPHA">      1.00000000</i>
  </separator>
  <separator name="linear response parameters" >
   <i type="logical" name="LEPSILON"> F  </i>
   <i type="logical" name="LRPA"> F  </i>
   <i type="logical" name="LNABLA"> F  </i>
   <i type="logical" name="LVEL"> F  </i>
   <i type="int" name="KINTER">     0</i>
   <i name="CSHIFT">      0.10000000</i>
   <i name="OMEGAMAX">     -1.00000000</i>
   <i name="DEG_THRESHOLD">      0.00200000</i>
   <i name="RTIME">     -0.10000000</i>
   <i name="WPLASMAI">      0.00000000</i>
   <v name="DFIELD">      0.00000000      0.00000000      0.00000000</v>
   <v name="WPLASMA">      0.00000000      0.00000000      0.00000000      0.00000000      0.00000000      0.00000000      0.00000000      0.00000000      0.00000000</v>
  </separator>
  <separator name="orbital magnetization" >
   <i type="logical" name="NUCIND"> F  </i>
   <v name="MAGPOS">      0.00000000      0.00000000      0.00000000</v>
   <i type="logical" name="LNICSALL"> T  </i>
   <i type="logical" name="ORBITALMAG"> F  </i>
   <i type="logical" name="LMAGBLOCH"> F  </i>
   <i type="logical" name="LCHIMAG"> F  </i>
   <i type="logical" name="LGAUGE"> T  </i>
   <i type="int" name="MAGATOM">     0</i>
   <v name="MAGDIPOL">      0.00000000      0.00000000      0.00000000</v>
   <v name="AVECCONST">      0.00000000      0.00000000      0.00000000</v>
  </separator>
  <separator name="response functions" >
   <i type="logical" name="LADDER"> F  </i>
   <i type="logical" name="LRPAFORCE"> F  </i>
   <i type="logical" name="LFXC"> F  </i>
   <i type="logical" name="LHARTREE"> T  </i>
   <i type="int" name="IBSE">     0</i>
   <v type="int" name="KPOINT">    -1     0     0     0</v>
   <i type="logical" name="LTCTE"> F  </i>
   <i type="logical" name="LTETE"> F  </i>
   <i type="logical" name="LTRIPLET"> F  </i>
   <i type="logical" name="LFXCEPS"> F  </i>
   <i type="logical" name="LFXHEG"> F  </i>
   <i type="int" name="NATURALO">     2</i>
   <i type="logical" name="L2ORDER"> F  </i>
   <i type="logical" name="LMP2LT"> F  </i>
   <i type="logical" name="LUSEW"> F  </i>
   <i name="ENCUTGW">     -2.00000000</i>
   <i name="ENCUTGWSOFT">     -2.00000000</i>
   <i name="ENCUTLF">     -1.00000000</i>
   <i type="int" name="LMAXMP2">    -1</i>
   <i name="SCISSOR">      0.00000000</i>
   <i type="int" name="NOMEGA">     0</i>
   <i type="int" name="NOMEGAR">     0</i>
   <i type="int" name="NBANDSGW">    -1</i>
   <i type="int" name="NBANDSO">    -1</i>
   <i type="int" name="NBANDSV">    -1</i>
   <i type="int" name="NELM">     1</i>
   <i type="int" name="NELMHF">     1</i>
   <i type="int" name="DIM">     3</i>
   <i type="int" name="ANTIRES">     0</i>
   <i name="OMEGAMAX">    -30.00000000</i>
   <i name="OMEGAMIN">    -30.00000000</i>
   <i name="OMEGATL">   -200.00000000</i>
   <i type="int" name="OMEGAGRID">   140</i>
   <i name="CSHIFT">     -0.10000000</i>
   <i type="logical" name="SELFENERGY"> F  </i>
   <i type="logical" name="LSPECTRAL"> F  </i>
   <i type="logical" name="LSPECTRALGW"> F  </i>
   <i type="logical" name="LSINGLES"> F  </i>
   <i type="logical" name="LFERMIGW"> F  </i>
   <i type="logical" name="ODDONLYGW"> F  </i>
   <i type="logical" name="EVENONLYGW"> F  </i>
   <i type="int" name="NKREDLFX">     1</i>
   <i type="int" name="NKREDLFY">     1</i>
   <i type="int" name="NKREDLFZ">     1</i>
   <i type="int" name="MAXMEM">  2800</i>
   <i type="int" name="TELESCOPE">     0</i>
   <i type="int" name="TAUPAR">     1</i>
   <i type="int" name="OMEGAPAR">    -1</i>
   <i name="LAMBDA">      1.00000000</i>
  </separator>
  <separator name="External order field" >
   <i name="OFIELD_KAPPA">      0.00000000</i>
   <v name="OFIELD_K">      0.00000000      0.00000000      0.00000000</v>
   <i name="OFIELD_Q6_NEAR">      0.00000000</i>
   <i name="OFIELD_Q6_FAR">      0.00000000</i>
   <i name="OFIELD_A">      0.00000000</i>
  </separator>
 </parameters>
 <atominfo>
  <atoms>       9 </atoms>
  <types>       2 </types>
  <array name="atoms" >
   <dimension dim="1">ion</dimension>
   <field type="string">element</field>
   <field type="int">atomtype</field>
   <set>
    <rc><c>Si</c><c>   1</c></rc>
    <rc><c>Si</c><c>   1</c></rc>
    <rc><c>Si</c><c>   1</c></rc>
    <rc><c>O </c><c>   2</c></rc>
    <rc><c>O </c><c>   2</c></rc>
    <rc><c>O </c><c>   2</c></rc>
    <rc><c>O </c><c>   2</c></rc>
    <rc><c>O </c><c>   2</c></rc>
    <rc><c>O </c><c>   2</c></rc>
   </set>
  </array>
  <array name="atomtypes" >
   <dimension dim="1">type</dimension>
   <field type="int">atomspertype</field>
   <field type="string">element</field>
   <field>mass</field>
   <field>valence</field>
   <field type="string">pseudopotential</field>
   <set>
    <rc><c>   3</c><c>Si</c><c>     28.08500000</c><c>      4.00000000</c><c> PAW_PBE Si 05Jan2001                   </c></rc>
    <rc><c>   6</c><c>O </c><c>     16.00000000</c><c>      6.00000000</c><c> PAW_PBE O 08Apr2002                    </c></rc>
   </set>
  </array>
 </atominfo>
 <structure name="initialpos" >
  <crystal>
   <varray name="basis" >
    <v>       4.91380000       0.00000000       0.00000000 </v>
    <v>      -2.45690000       4.25547563       0.00000000 </v>
    <v>       0.00000000       0.00000000       5.40520000 </v>
   </varray>
   <i name="volume">    113.02573808 </i>
   <varray name="rec_basis" >
    <v>       0.20350849       0.11749568       0.00000000 </v>
    <v>       0.00000000       0.23499136       0.00000000 </v>
    <v>       0.00000000       0.00000000       0.18500703 </v>
   </varray>
  </crystal>
  <varray name="positions" >
   <v>       0.46980000       0.00000000       0.66666667 </v>
   <v>       0.53020000       0.53020000       0.00000000 </v>
   <v>       0.00000000       0.46980000       0.33333333 </v>
   <v>       0.41450000       0.26620000       0.78560000 </v>
   <v>       0.58550000       0.85170000       0.88106667 </v>
   <v>       0.14830000       0.73380000       0.54773333 </v>
   <v>       0.26620000       0.41450000       0.21440000 </v>
   <v>       0.85170000       0.58550000       0.11893333 </v>
   <v>       0.73380000       0.14830000       0.45226667 </v>
  </varray>
 </structure>
 <calculation>
  <scstep>
   <time name="dav">    1.98    2.00</time>
   <time name="total">    2.06    2.12</time>
   <energy>
    <i name="alphaZ">     69.72428684 </i>
    <i name="ewald">  -1887.17190222 </i>
    <i name="hartreedc">   -937.16683993 </i>
    <i name="XCdc">    142.01202145 </i>
    <i name="pawpsdc">   1574.92322788 </i>
    <i name="pawaedc">  -1533.24131965 </i>
    <i name="eentropy">      0.00000000 </i>
    <i name="bandstr">     76.68226335 </i>
    <i name="atom">   2903.45762588 </i>
    <i name="e_fr_energy">    409.21936361 </i>
    <i name="e_wo_entrp">    409.21936361 </i>
    <i name="e_0_energy">    409.21936361 </i>
   </energy>
  </scstep>
  <scstep>
   <time name="dav">    2.37    2.39</time>
   <time name="total">    2.37    2.39</time>
   <energy>
    <i name="e_fr_energy">    -53.15653416 </i>
    <i name="e_wo_entrp">    -53.15653416 </i>
    <i name="e_0_energy">    -53.15653416 </i>
   </energy>
  </scstep>
  <scstep>
   <time name="dav">    2.18    2.20</time>
   <time name="total">    2.18    2.20</time>
   <energy>
    <i name="e_fr_energy">    -80.29902185 </i>
    <i name="e_wo_entrp">    -80.29902185 </i>
    <i name="e_0_energy">    -80.29902185 </i>
   </energy>
  </scstep>
  <scstep>
   <time name="dav">    2.21    2.23</time>
   <time name="total">    2.21    2.23</time>
   <energy>
    <i name="e_fr_energy">    -80.67232135 </i>
    <i name="e_wo_entrp">    -80.67232135 </i>
    <i name="e_0_energy">    -80.67232135 </i>
   </energy>
  </scstep>
  <scstep>
   <time name="dav">    2.10    2.12</time>
   <time name="total">    2.23    2.26</time>
   <energy>
    <i name="e_fr_energy">    -80.67872477 </i>
    <i name="e_wo_entrp">    -80.67872477 </i>
    <i name="e_0_energy">    -80.67872477 </i>
   </energy>
  </scstep>
  <scstep>
   <time name="diag">    0.38    0.39</time>
   <time name="diis">    1.31    1.32</time>
   <time name="orth">    0.05    0.05</time>
   <time name="total">    1.94    1.97</time>
   <energy>
    <i name="e_fr_energy">    -71.08158067 </i>
    <i name="e_wo_entrp">    -71.08158067 </i>
    <i name="e_0_energy">    -71.08158067 </i>
   </energy>
  </scstep>
  <scstep>
   <time name="diag">    0.37    0.38</time>
   <time name="diis">    1.42    1.43</time>
   <time name="orth">    0.05    0.05</time>
   <time name="total">    2.03    2.05</time>
   <energy>
    <i name="e_fr_energy">    -71.05168272 </i>
    <i name="e_wo_entrp">    -71.05168272 </i>
    <i name="e_0_energy">    -71.05168272 </i>
   </energy>
  </scstep>
  <scstep>
   <time name="diag">    0.38    0.38</time>
   <time name="diis">    1.40    1.41</time>
   <time name="orth">    0.05    0.05</time>
   <time name="total">    2.01    2.03</time>
   <energy>
    <i name="e_fr_energy">    -71.06740917 </i>
    <i name="e_wo_entrp">    -71.06740917 </i>
    <i name="e_0_energy">    -71.06740917 </i>
   </energy>
  </scstep>
  <scstep>
   <time name="diag">    0.38    0.38</time>
   <time name="diis">    1.46    1.47</time>
   <time name="orth">    0.05    0.05</time>
   <time name="total">    2.08    2.10</time>
   <energy>
    <i name="e_fr_energy">    -71.06044641 </i>
    <i name="e_wo_entrp">    -71.06044641 </i>
    <i name="e_0_energy">    -71.06044641 </i>
   </energy>
  </scstep>
  <scstep>
   <time name="diag">    0.39    0.39</time>
   <time name="diis">    1.45    1.46</time>
   <time name="orth">    0.05    0.05</time>
   <time name="total">    2.09    2.10</time>
   <energy>
    <i name="e_fr_energy">    -71.06340138 </i>
    <i name="e_wo_entrp">    -71.06340138 </i>
    <i name="e_0_energy">    -71.06340138 </i>
   </energy>
  </scstep>
  <scstep>
   <time name="diag">    0.39    0.39</time>
   <time name="diis">    1.47    1.48</time>
   <time name="orth">    0.05    0.05</time>
   <time name="total">    2.10    2.11</time>
   <energy>
    <i name="e_fr_energy">    -71.06212803 </i>
    <i name="e_wo_entrp">    -71.06212803 </i>
    <i name="e_0_energy">    -71.06212803 </i>
   </energy>
  </scstep>
  <scstep>
   <time name="diag">    0.38    0.38</time>
   <time name="diis">    1.45    1.46</time>
   <time name="orth">    0.05    0.05</time>
   <time name="total">    2.07    2.09</time>
   <energy>
    <i name="e_fr_energy">    -71.06208432 </i>
    <i name="e_wo_entrp">    -71.06208432 </i>
    <i name="e_0_energy">    -71.06208432 </i>
   </energy>
  </scstep>
  <scstep>
   <time name="diag">    0.38    0.38</time>
   <time name="diis">    1.04    1.05</time>
   <time name="orth">    0.05    0.05</time>
   <time name="total">    1.53    1.54</time>
   <energy>
    <i name="alphaZ">     69.72428684 </i>
    <i name="ewald">  -1887.17190222 </i>
    <i name="hartreedc">  -1071.56353842 </i>
    <i name="XCdc">    151.13127269 </i>
    <i name="pawpsdc">   2050.88596896 </i>
    <i name="pawaedc">  -2011.55490678 </i>
    <i name="eentropy">      0.00000000 </i>
    <i name="bandstr">   -275.97089232 </i>
    <i name="atom">   2903.45762588 </i>
    <i name="e_fr_energy">    -71.06208536 </i>
    <i name="e_wo_entrp">    -71.06208536 </i>
    <i name="e_0_energy">    -71.06208536 </i>
   </energy>
  </scstep>
  <structure>
   <crystal>
    <varray name="basis" >
     <v>       4.91380000       0.00000000       0.00000000 </v>
     <v>      -2.45690000       4.25547563       0.00000000 </v>
     <v>       0.00000000       0.00000000       5.40520000 </v>
    </varray>
    <i name="volume">    113.02573808 </i>
    <varray name="rec_basis" >
     <v>       0.20350849       0.11749568       0.00000000 </v>
     <v>       0.00000000       0.23499136       0.00000000 </v>
     <v>       0.00000000       0.00000000       0.18500703 </v>
    </varray>
   </crystal>
   <varray name="positions" >
    <v>       0.46980000       0.00000000       0.66666667 </v>
    <v>       0.53020000       0.53020000       0.00000000 </v>
    <v>       0.00000000       0.46980000       0.33333333 </v>
    <v>       0.41450000       0.26620000       0.78560000 </v>
    <v>       0.58550000       0.85170000       0.88106667 </v>
    <v>       0.14830000       0.73380000       0.54773333 </v>
    <v>       0.26620000       0.41450000       0.21440000 </v>
    <v>       0.85170000       0.58550000       0.11893333 </v>
    <v>       0.73380000       0.14830000       0.45226667 </v>
   </varray>
  </structure>
  <varray name="forces" >
   <v>       0.40940420      -0.00000000      -0.00000000 </v>
   <v>      -0.20470210      -0.35455444      -0.00000000 </v>
   <v>      -0.20470210       0.35455444      -0.00000000 </v>
   <v>      -0.51284445       0.28529136       0.07634907 </v>
   <v>       0.00935266       0.58678201      -0.07634907 </v>
   <v>      -0.51284445      -0.28529136      -0.07634907 </v>
   <v>       0.50349179      -0.30149064      -0.07634907 </v>
   <v>       0.50349179       0.30149064       0.07634907 </v>
   <v>       0.00935266      -0.58678201       0.07634907 </v>
  </varray>
  <varray name="stress" >
   <v>      86.68432986      -0.00000000       0.00000000 </v>
   <v>      -0.00000000      86.68432986      -0.00000000 </v>
   <v>       0.00000000       0.00000000      72.81203254 </v>
  </varray>
  <energy>
   <i name="e_fr_energy">    -71.06208536 </i>
   <i name="e_wo_entrp">    -71.06208536 </i>
   <i name="e_0_energy">      0.00000000 </i>
  </energy>
  <time name="totalsc">   30.17   30.75</time>
  <eigenvalues>
   <array>
    <dimension dim="1">band</dimension>
    <dimension dim="2">kpoint</dimension>
    <dimension dim="3">spin</dimension>
    <field>eigene</field>
    <field>occ</field>
    <set>
     <set comment="spin 1">
      <set comment="kpoint 1">
       <r>  -18.3723    1.0000 </r>
       <r>  -16.8357    1.0000 </r>
       <r>  -16.8357    1.0000 </r>
       <r>  -16.2011    1.0000 </r>
       <r>  -16.1530    1.0000 </r>
       <r>  -16.1530    1.0000 </r>
       <r>   -7.1769    1.0000 </r>
       <r>   -7.1768    1.0000 </r>
       <r>   -4.3370    1.0000 </r>
       <r>   -4.3310    1.0000 </r>
       <r>   -4.1787    1.0000 </r>
       <r>   -4.1787    1.0000 </r>
       <r>   -1.8602    1.0000 </r>
       <r>   -1.8602    1.0000 </r>
       <r>   -1.6230    1.0000 </r>
       <r>   -1.3629    1.0000 </r>
       <r>   -0.4124    1.0000 </r>
       <r>   -0.4124    1.0000 </r>
       <r>   -0.3943    1.0000 </r>
       <r>    0.1088    1.0000 </r>
       <r>    0.1088    1.0000 </r>
       <r>    0.4180    1.0000 </r>
       <r>    0.7584    1.0000 </r>
       <r>    0.7585    1.0000 </r>
       <r>    7.1198    0.0000 </r>
       <r>   10.3975    0.0000 </r>
       <r>   10.3975    0.0000 </r>
       <r>   10.8989    0.0000 </r>
       <r>   10.8989    0.0000 </r>
       <r>   12.7221    0.0000 </r>
      </set>
      <set comment="kpoint 2">
       <r>  -18.2908    1.0000 </r>
       <r>  -16.9299    1.0000 </r>
       <r>  -16.8237    1.0000 </r>
       <r>  -16.2207    1.0000 </r>
       <r>  -16.1701    1.0000 </r>
       <r>  -16.1595    1.0000 </r>
       <r>   -7.2144    1.0000 </r>
       <r>   -6.9953    1.0000 </r>
       <r>   -4.3769    1.0000 </r>
       <r>   -4.3510    1.0000 </r>
       <r>   -4.2795    1.0000 </r>
       <r>   -4.0182    1.0000 </r>
       <r>   -1.9854    1.0000 </r>
       <r>   -1.8005    1.0000 </r>
       <r>   -1.5928    1.0000 </r>
       <r>   -1.1965    1.0000 </r>
       <r>   -0.6858    1.0000 </r>
       <r>   -0.4512    1.0000 </r>
       <r>   -0.4058    1.0000 </r>
       <r>    0.0460    1.0000 </r>
       <r>    0.0988    1.0000 </r>
       <r>    0.3158    1.0000 </r>
       <r>    0.8218    1.0000 </r>
       <r>    0.8554    1.0000 </r>
       <r>    7.5417    0.0000 </r>
       <r>   10.3841    0.0000 </r>
       <r>   10.4443    0.0000 </r>
       <r>   10.9340    0.0000 </r>
       <r>   11.0423    0.0000 </r>
       <r>   12.3943    0.0000 </r>
      </set>
      <set comment="kpoint 3">
       <r>  -18.0719    1.0000 </r>
       <r>  -17.1892    1.0000 </r>
       <r>  -16.7982    1.0000 </r>
       <r>  -16.2438    1.0000 </r>
       <r>  -16.1985    1.0000 </r>
       <r>  -16.1786    1.0000 </r>
       <r>   -7.2861    1.0000 </r>
       <r>   -6.5758    1.0000 </r>
       <r>   -4.6329    1.0000 </r>
       <r>   -4.3847    1.0000 </r>
       <r>   -4.3028    1.0000 </r>
       <r>   -3.7159    1.0000 </r>
       <r>   -2.0679    1.0000 </r>
       <r>   -1.6922    1.0000 </r>
       <r>   -1.5676    1.0000 </r>
       <r>   -1.2005    1.0000 </r>
       <r>   -1.0016    1.0000 </r>
       <r>   -0.5822    1.0000 </r>
       <r>   -0.4905    1.0000 </r>
       <r>   -0.0052    1.0000 </r>
       <r>    0.0640    1.0000 </r>
       <r>    0.2669    1.0000 </r>
       <r>    0.8496    1.0000 </r>
       <r>    0.9989    1.0000 </r>
       <r>    8.5405    0.0000 </r>
       <r>   10.4272    0.0000 </r>
       <r>   10.5546    0.0000 </r>
       <r>   11.0550    0.0000 </r>
       <r>   11.3928    0.0000 </r>
       <r>   11.7500    0.0000 </r>
      </set>
      <set comment="kpoint 4">
       <r>  -17.8825    1.0000 </r>
       <r>  -17.4037    1.0000 </r>
       <r>  -16.7845    1.0000 </r>
       <r>  -16.2497    1.0000 </r>
       <r>  -16.2112    1.0000 </r>
       <r>  -16.1901    1.0000 </r>
       <r>   -7.3204    1.0000 </r>
       <r>   -6.3136    1.0000 </r>
       <r>   -4.8211    1.0000 </r>
       <r>   -4.3620    1.0000 </r>
       <r>   -4.3309    1.0000 </r>
       <r>   -3.5502    1.0000 </r>
       <r>   -1.9958    1.0000 </r>
       <r>   -1.8293    1.0000 </r>
       <r>   -1.5988    1.0000 </r>
       <r>   -1.2177    1.0000 </r>
       <r>   -1.0095    1.0000 </r>
       <r>   -0.6652    1.0000 </r>
       <r>   -0.5979    1.0000 </r>
       <r>   -0.0083    1.0000 </r>
       <r>    0.0570    1.0000 </r>
       <r>    0.2974    1.0000 </r>
       <r>    0.8327    1.0000 </r>
       <r>    1.0565    1.0000 </r>
       <r>    9.3782    0.0000 </r>
       <r>   10.1149    0.0000 </r>
       <r>   10.8423    0.0000 </r>
       <r>   10.8431    0.0000 </r>
       <r>   11.6213    0.0000 </r>
       <r>   11.6970    0.0000 </r>
      </set>
      <set comment="kpoint 5">
       <r>  -18.1381    1.0000 </r>
       <r>  -17.1058    1.0000 </r>
       <r>  -16.8122    1.0000 </r>
       <r>  -16.2386    1.0000 </r>
       <r>  -16.1954    1.0000 </r>
       <r>  -16.1690    1.0000 </r>
       <r>   -7.2785    1.0000 </r>
       <r>   -6.6695    1.0000 </r>
       <r>   -4.6407    1.0000 </r>
       <r>   -4.3697    1.0000 </r>
       <r>   -4.2278    1.0000 </r>
       <r>   -3.8054    1.0000 </r>
       <r>   -2.0349    1.0000 </r>
       <r>   -1.7875    1.0000 </r>
       <r>   -1.4879    1.0000 </r>
       <r>   -1.0880    1.0000 </r>
       <r>   -1.0803    1.0000 </r>
       <r>   -0.5610    1.0000 </r>
       <r>   -0.3632    1.0000 </r>
       <r>   -0.1315    1.0000 </r>
       <r>    0.1815    1.0000 </r>
       <r>    0.2269    1.0000 </r>
       <r>    0.8406    1.0000 </r>
       <r>    0.9764    1.0000 </r>
       <r>    8.2492    0.0000 </r>
       <r>   10.4266    0.0000 </r>
       <r>   10.5685    0.0000 </r>
       <r>   11.0510    0.0000 </r>
       <r>   11.2207    0.0000 </r>
       <r>   11.9501    0.0000 </r>
      </set>
      <set comment="kpoint 6">
       <r>  -17.8892    1.0000 </r>
       <r>  -17.3843    1.0000 </r>
       <r>  -16.8044    1.0000 </r>
       <r>  -16.2470    1.0000 </r>
       <r>  -16.2095    1.0000 </r>
       <r>  -16.1873    1.0000 </r>
       <r>   -7.3437    1.0000 </r>
       <r>   -6.2135    1.0000 </r>
       <r>   -5.0401    1.0000 </r>
       <r>   -4.3219    1.0000 </r>
       <r>   -4.2302    1.0000 </r>
       <r>   -3.5580    1.0000 </r>
       <r>   -1.9842    1.0000 </r>
       <r>   -1.7852    1.0000 </r>
       <r>   -1.6588    1.0000 </r>
       <r>   -1.1649    1.0000 </r>
       <r>   -1.0026    1.0000 </r>
       <r>   -0.6963    1.0000 </r>
       <r>   -0.5080    1.0000 </r>
       <r>   -0.1898    1.0000 </r>
       <r>    0.0295    1.0000 </r>
       <r>    0.4218    1.0000 </r>
       <r>    0.7991    1.0000 </r>
       <r>    1.0679    1.0000 </r>
       <r>    9.2658    0.0000 </r>
       <r>   10.3651    0.0000 </r>
       <r>   10.6824    0.0000 </r>
       <r>   11.0863    0.0000 </r>
       <r>   11.4959    0.0000 </r>
       <r>   11.7128    0.0000 </r>
      </set>
      <set comment="kpoint 7">
       <r>  -17.6373    1.0000 </r>
       <r>  -17.6373    1.0000 </r>
       <r>  -16.8185    1.0000 </r>
       <r>  -16.2459    1.0000 </r>
       <r>  -16.2017    1.0000 </r>
       <r>  -16.2017    1.0000 </r>
       <r>   -7.3813    1.0000 </r>
       <r>   -5.6429    1.0000 </r>
       <r>   -5.6429    1.0000 </r>
       <r>   -4.2393    1.0000 </r>
       <r>   -4.2393    1.0000 </r>
       <r>   -3.4637    1.0000 </r>
       <r>   -1.8546    1.0000 </r>
       <r>   -1.8546    1.0000 </r>
       <r>   -1.8037    1.0000 </r>
       <r>   -0.9778    1.0000 </r>
       <r>   -0.9778    1.0000 </r>
       <r>   -0.8218    1.0000 </r>
       <r>   -0.6252    1.0000 </r>
       <r>   -0.1473    1.0000 </r>
       <r>   -0.1473    1.0000 </r>
       <r>    0.6575    1.0000 </r>
       <r>    0.6575    1.0000 </r>
       <r>    1.0991    1.0000 </r>
       <r>   10.0495    0.0000 </r>
       <r>   10.0495    0.0000 </r>
       <r>   10.5372    0.0000 </r>
       <r>   11.4709    0.0000 </r>
       <r>   11.6216    0.0000 </r>
       <r>   11.6511    0.0000 </r>
      </set>
      <set comment="kpoint 8">
       <r>  -18.2938    1.0000 </r>
       <r>  -17.2847    1.0000 </r>
       <r>  -16.4512    1.0000 </r>
       <r>  -16.1988    1.0000 </r>
       <r>  -16.1687    1.0000 </r>
       <r>  -16.1379    1.0000 </r>
       <r>   -7.8497    1.0000 </r>
       <r>   -6.3497    1.0000 </r>
       <r>   -4.4966    1.0000 </r>
       <r>   -4.4201    1.0000 </r>
       <r>   -4.3714    1.0000 </r>
       <r>   -3.8734    1.0000 </r>
       <r>   -1.9442    1.0000 </r>
       <r>   -1.6657    1.0000 </r>
       <r>   -1.5649    1.0000 </r>
       <r>   -1.2330    1.0000 </r>
       <r>   -0.6054    1.0000 </r>
       <r>   -0.4846    1.0000 </r>
       <r>   -0.4243    1.0000 </r>
       <r>   -0.2844    1.0000 </r>
       <r>    0.0770    1.0000 </r>
       <r>    0.5184    1.0000 </r>
       <r>    0.8089    1.0000 </r>
       <r>    0.9684    1.0000 </r>
       <r>    7.5138    0.0000 </r>
       <r>   10.2544    0.0000 </r>
       <r>   10.4188    0.0000 </r>
       <r>   10.5199    0.0000 </r>
       <r>   11.2225    0.0000 </r>
       <r>   12.1370    0.0000 </r>
      </set>
      <set comment="kpoint 9">
       <r>  -18.2167    1.0000 </r>
       <r>  -17.2838    1.0000 </r>
       <r>  -16.5344    1.0000 </r>
       <r>  -16.2137    1.0000 </r>
       <r>  -16.1878    1.0000 </r>
       <r>  -16.1492    1.0000 </r>
       <r>   -7.7048    1.0000 </r>
       <r>   -6.3579    1.0000 </r>
       <r>   -4.6748    1.0000 </r>
       <r>   -4.3784    1.0000 </r>
       <r>   -4.1821    1.0000 </r>
       <r>   -3.9230    1.0000 </r>
       <r>   -2.0444    1.0000 </r>
       <r>   -1.6498    1.0000 </r>
       <r>   -1.5290    1.0000 </r>
       <r>   -1.1554    1.0000 </r>
       <r>   -0.8349    1.0000 </r>
       <r>   -0.4986    1.0000 </r>
       <r>   -0.3954    1.0000 </r>
       <r>   -0.2404    1.0000 </r>
       <r>    0.1598    1.0000 </r>
       <r>    0.4146    1.0000 </r>
       <r>    0.7503    1.0000 </r>
       <r>    1.0100    1.0000 </r>
       <r>    7.8896    0.0000 </r>
       <r>   10.2682    0.0000 </r>
       <r>   10.5102    0.0000 </r>
       <r>   10.6048    0.0000 </r>
       <r>   11.2972    0.0000 </r>
       <r>   11.9889    0.0000 </r>
      </set>
      <set comment="kpoint 10">
       <r>  -18.0149    1.0000 </r>
       <r>  -17.3240    1.0000 </r>
       <r>  -16.7206    1.0000 </r>
       <r>  -16.2412    1.0000 </r>
       <r>  -16.2140    1.0000 </r>
       <r>  -16.1689    1.0000 </r>
       <r>   -7.4117    1.0000 </r>
       <r>   -6.3297    1.0000 </r>
       <r>   -4.9099    1.0000 </r>
       <r>   -4.3371    1.0000 </r>
       <r>   -4.1010    1.0000 </r>
       <r>   -3.8269    1.0000 </r>
       <r>   -2.1395    1.0000 </r>
       <r>   -1.7123    1.0000 </r>
       <r>   -1.4753    1.0000 </r>
       <r>   -1.2126    1.0000 </r>
       <r>   -0.8967    1.0000 </r>
       <r>   -0.6035    1.0000 </r>
       <r>   -0.4927    1.0000 </r>
       <r>   -0.0555    1.0000 </r>
       <r>    0.1594    1.0000 </r>
       <r>    0.2790    1.0000 </r>
       <r>    0.7929    1.0000 </r>
       <r>    0.9653    1.0000 </r>
       <r>    8.8053    0.0000 </r>
       <r>   10.3200    0.0000 </r>
       <r>   10.5721    0.0000 </r>
       <r>   11.0312    0.0000 </r>
       <r>   11.4048    0.0000 </r>
       <r>   11.6557    0.0000 </r>
      </set>
      <set comment="kpoint 11">
       <r>  -17.8600    1.0000 </r>
       <r>  -17.3926    1.0000 </r>
       <r>  -16.8312    1.0000 </r>
       <r>  -16.2501    1.0000 </r>
       <r>  -16.2157    1.0000 </r>
       <r>  -16.1813    1.0000 </r>
       <r>   -7.2728    1.0000 </r>
       <r>   -6.2744    1.0000 </r>
       <r>   -5.0454    1.0000 </r>
       <r>   -4.3586    1.0000 </r>
       <r>   -4.1065    1.0000 </r>
       <r>   -3.6735    1.0000 </r>
       <r>   -2.0479    1.0000 </r>
       <r>   -1.9469    1.0000 </r>
       <r>   -1.4718    1.0000 </r>
       <r>   -1.2626    1.0000 </r>
       <r>   -0.8463    1.0000 </r>
       <r>   -0.7264    1.0000 </r>
       <r>   -0.4222    1.0000 </r>
       <r>   -0.0742    1.0000 </r>
       <r>    0.1386    1.0000 </r>
       <r>    0.3312    1.0000 </r>
       <r>    0.7199    1.0000 </r>
       <r>    0.9958    1.0000 </r>
       <r>    9.5714    0.0000 </r>
       <r>   10.1808    0.0000 </r>
       <r>   10.6855    0.0000 </r>
       <r>   11.1517    0.0000 </r>
       <r>   11.5742    0.0000 </r>
       <r>   11.6396    0.0000 </r>
      </set>
      <set comment="kpoint 12">
       <r>  -18.0186    1.0000 </r>
       <r>  -17.3038    1.0000 </r>
       <r>  -16.7540    1.0000 </r>
       <r>  -16.2334    1.0000 </r>
       <r>  -16.1931    1.0000 </r>
       <r>  -16.1803    1.0000 </r>
       <r>   -7.4153    1.0000 </r>
       <r>   -6.3311    1.0000 </r>
       <r>   -4.9115    1.0000 </r>
       <r>   -4.3763    1.0000 </r>
       <r>   -4.0779    1.0000 </r>
       <r>   -3.7774    1.0000 </r>
       <r>   -2.0752    1.0000 </r>
       <r>   -1.7038    1.0000 </r>
       <r>   -1.5284    1.0000 </r>
       <r>   -1.3910    1.0000 </r>
       <r>   -0.9263    1.0000 </r>
       <r>   -0.5019    1.0000 </r>
       <r>   -0.3486    1.0000 </r>
       <r>   -0.0914    1.0000 </r>
       <r>    0.0614    1.0000 </r>
       <r>    0.3930    1.0000 </r>
       <r>    0.6350    1.0000 </r>
       <r>    1.0587    1.0000 </r>
       <r>    8.7717    0.0000 </r>
       <r>   10.3796    0.0000 </r>
       <r>   10.7672    0.0000 </r>
       <r>   11.1835    0.0000 </r>
       <r>   11.3781    0.0000 </r>
       <r>   11.7103    0.0000 </r>
      </set>
      <set comment="kpoint 13">
       <r>  -18.2172    1.0000 </r>
       <r>  -17.2798    1.0000 </r>
       <r>  -16.5455    1.0000 </r>
       <r>  -16.2124    1.0000 </r>
       <r>  -16.1773    1.0000 </r>
       <r>  -16.1532    1.0000 </r>
       <r>   -7.7059    1.0000 </r>
       <r>   -6.3580    1.0000 </r>
       <r>   -4.6790    1.0000 </r>
       <r>   -4.3795    1.0000 </r>
       <r>   -4.1962    1.0000 </r>
       <r>   -3.8945    1.0000 </r>
       <r>   -2.0177    1.0000 </r>
       <r>   -1.6671    1.0000 </r>
       <r>   -1.5236    1.0000 </r>
       <r>   -1.2061    1.0000 </r>
       <r>   -0.8781    1.0000 </r>
       <r>   -0.4133    1.0000 </r>
       <r>   -0.3842    1.0000 </r>
       <r>   -0.2609    1.0000 </r>
       <r>    0.1900    1.0000 </r>
       <r>    0.3760    1.0000 </r>
       <r>    0.7248    1.0000 </r>
       <r>    1.0395    1.0000 </r>
       <r>    7.8799    0.0000 </r>
       <r>   10.3068    0.0000 </r>
       <r>   10.5358    0.0000 </r>
       <r>   10.6540    0.0000 </r>
       <r>   11.2299    0.0000 </r>
       <r>   12.0161    0.0000 </r>
      </set>
      <set comment="kpoint 14">
       <r>  -18.0758    1.0000 </r>
       <r>  -17.2966    1.0000 </r>
       <r>  -16.6875    1.0000 </r>
       <r>  -16.2296    1.0000 </r>
       <r>  -16.2041    1.0000 </r>
       <r>  -16.1657    1.0000 </r>
       <r>   -7.4881    1.0000 </r>
       <r>   -6.3317    1.0000 </r>
       <r>   -4.8886    1.0000 </r>
       <r>   -4.3433    1.0000 </r>
       <r>   -4.0740    1.0000 </r>
       <r>   -3.8625    1.0000 </r>
       <r>   -2.0964    1.0000 </r>
       <r>   -1.6502    1.0000 </r>
       <r>   -1.5316    1.0000 </r>
       <r>   -1.2596    1.0000 </r>
       <r>   -0.9444    1.0000 </r>
       <r>   -0.4951    1.0000 </r>
       <r>   -0.4137    1.0000 </r>
       <r>   -0.1328    1.0000 </r>
       <r>    0.1764    1.0000 </r>
       <r>    0.3069    1.0000 </r>
       <r>    0.7107    1.0000 </r>
       <r>    1.0277    1.0000 </r>
       <r>    8.5205    0.0000 </r>
       <r>   10.3263    0.0000 </r>
       <r>   10.7362    0.0000 </r>
       <r>   10.8859    0.0000 </r>
       <r>   11.3501    0.0000 </r>
       <r>   11.7278    0.0000 </r>
      </set>
      <set comment="kpoint 15">
       <r>  -17.8618    1.0000 </r>
       <r>  -17.3909    1.0000 </r>
       <r>  -16.8279    1.0000 </r>
       <r>  -16.2487    1.0000 </r>
       <r>  -16.2243    1.0000 </r>
       <r>  -16.1779    1.0000 </r>
       <r>   -7.2860    1.0000 </r>
       <r>   -6.1906    1.0000 </r>
       <r>   -5.1869    1.0000 </r>
       <r>   -4.3213    1.0000 </r>
       <r>   -4.0740    1.0000 </r>
       <r>   -3.6917    1.0000 </r>
       <r>   -2.0924    1.0000 </r>
       <r>   -1.8148    1.0000 </r>
       <r>   -1.5890    1.0000 </r>
       <r>   -1.1327    1.0000 </r>
       <r>   -0.9000    1.0000 </r>
       <r>   -0.7077    1.0000 </r>
       <r>   -0.4215    1.0000 </r>
       <r>   -0.1389    1.0000 </r>
       <r>    0.1210    1.0000 </r>
       <r>    0.3735    1.0000 </r>
       <r>    0.7373    1.0000 </r>
       <r>    0.9700    1.0000 </r>
       <r>    9.4548    0.0000 </r>
       <r>   10.4443    0.0000 </r>
       <r>   10.6039    0.0000 </r>
       <r>   11.2064    0.0000 </r>
       <r>   11.4089    0.0000 </r>
       <r>   11.6827    0.0000 </r>
      </set>
      <set comment="kpoint 16">
       <r>  -17.8645    1.0000 </r>
       <r>  -17.3815    1.0000 </r>
       <r>  -16.8396    1.0000 </r>
       <r>  -16.2438    1.0000 </r>
       <r>  -16.2229    1.0000 </r>
       <r>  -16.1790    1.0000 </r>
       <r>   -7.2872    1.0000 </r>
       <r>   -6.1918    1.0000 </r>
       <r>   -5.1866    1.0000 </r>
       <r>   -4.3307    1.0000 </r>
       <r>   -4.0678    1.0000 </r>
       <r>   -3.6769    1.0000 </r>
       <r>   -2.0566    1.0000 </r>
       <r>   -1.8415    1.0000 </r>
       <r>   -1.6073    1.0000 </r>
       <r>   -1.1863    1.0000 </r>
       <r>   -0.9121    1.0000 </r>
       <r>   -0.6735    1.0000 </r>
       <r>   -0.3240    1.0000 </r>
       <r>   -0.1869    1.0000 </r>
       <r>    0.0714    1.0000 </r>
       <r>    0.4550    1.0000 </r>
       <r>    0.6506    1.0000 </r>
       <r>    1.0062    1.0000 </r>
       <r>    9.4446    0.0000 </r>
       <r>   10.3528    0.0000 </r>
       <r>   10.9105    0.0000 </r>
       <r>   11.0640    0.0000 </r>
       <r>   11.4531    0.0000 </r>
       <r>   11.7973    0.0000 </r>
      </set>
      <set comment="kpoint 17">
       <r>  -17.7366    1.0000 </r>
       <r>  -17.4751    1.0000 </r>
       <r>  -16.8785    1.0000 </r>
       <r>  -16.2432    1.0000 </r>
       <r>  -16.2406    1.0000 </r>
       <r>  -16.1813    1.0000 </r>
       <r>   -7.2414    1.0000 </r>
       <r>   -5.9355    1.0000 </r>
       <r>   -5.5191    1.0000 </r>
       <r>   -4.2988    1.0000 </r>
       <r>   -4.0635    1.0000 </r>
       <r>   -3.6189    1.0000 </r>
       <r>   -2.0604    1.0000 </r>
       <r>   -1.7569    1.0000 </r>
       <r>   -1.7535    1.0000 </r>
       <r>   -0.9687    1.0000 </r>
       <r>   -0.9128    1.0000 </r>
       <r>   -0.8463    1.0000 </r>
       <r>   -0.3640    1.0000 </r>
       <r>   -0.2084    1.0000 </r>
       <r>    0.0257    1.0000 </r>
       <r>    0.5729    1.0000 </r>
       <r>    0.6185    1.0000 </r>
       <r>    0.9650    1.0000 </r>
       <r>   10.0537    0.0000 </r>
       <r>   10.2541    0.0000 </r>
       <r>   10.6631    0.0000 </r>
       <r>   11.3707    0.0000 </r>
       <r>   11.4367    0.0000 </r>
       <r>   11.5233    0.0000 </r>
      </set>
      <set comment="kpoint 18">
       <r>  -18.0666    1.0000 </r>
       <r>  -17.7159    1.0000 </r>
       <r>  -16.2241    1.0000 </r>
       <r>  -16.1922    1.0000 </r>
       <r>  -16.1821    1.0000 </r>
       <r>  -16.1285    1.0000 </r>
       <r>   -8.2301    1.0000 </r>
       <r>   -5.5314    1.0000 </r>
       <r>   -4.8818    1.0000 </r>
       <r>   -4.5353    1.0000 </r>
       <r>   -4.5031    1.0000 </r>
       <r>   -3.6339    1.0000 </r>
       <r>   -1.7864    1.0000 </r>
       <r>   -1.5559    1.0000 </r>
       <r>   -1.5132    1.0000 </r>
       <r>   -1.0235    1.0000 </r>
       <r>   -0.8462    1.0000 </r>
       <r>   -0.7476    1.0000 </r>
       <r>   -0.6372    1.0000 </r>
       <r>   -0.4604    1.0000 </r>
       <r>   -0.0930    1.0000 </r>
       <r>    0.7628    1.0000 </r>
       <r>    0.9786    1.0000 </r>
       <r>    0.9795    1.0000 </r>
       <r>    8.4948    0.0000 </r>
       <r>    9.6458    0.0000 </r>
       <r>   10.1998    0.0000 </r>
       <r>   10.5268    0.0000 </r>
       <r>   11.2513    0.0000 </r>
       <r>   11.6904    0.0000 </r>
      </set>
      <set comment="kpoint 19">
       <r>  -18.0048    1.0000 </r>
       <r>  -17.6743    1.0000 </r>
       <r>  -16.3454    1.0000 </r>
       <r>  -16.2134    1.0000 </r>
       <r>  -16.1898    1.0000 </r>
       <r>  -16.1429    1.0000 </r>
       <r>   -8.0304    1.0000 </r>
       <r>   -5.6360    1.0000 </r>
       <r>   -5.0501    1.0000 </r>
       <r>   -4.4350    1.0000 </r>
       <r>   -4.3374    1.0000 </r>
       <r>   -3.6907    1.0000 </r>
       <r>   -1.9264    1.0000 </r>
       <r>   -1.6446    1.0000 </r>
       <r>   -1.4954    1.0000 </r>
       <r>   -1.1218    1.0000 </r>
       <r>   -0.9447    1.0000 </r>
       <r>   -0.5719    1.0000 </r>
       <r>   -0.5247    1.0000 </r>
       <r>   -0.3233    1.0000 </r>
       <r>   -0.0199    1.0000 </r>
       <r>    0.6513    1.0000 </r>
       <r>    0.9041    1.0000 </r>
       <r>    0.9339    1.0000 </r>
       <r>    8.7733    0.0000 </r>
       <r>    9.7824    0.0000 </r>
       <r>   10.3718    0.0000 </r>
       <r>   10.5675    0.0000 </r>
       <r>   11.3105    0.0000 </r>
       <r>   11.6704    0.0000 </r>
      </set>
      <set comment="kpoint 20">
       <r>  -17.8765    1.0000 </r>
       <r>  -17.5381    1.0000 </r>
       <r>  -16.6582    1.0000 </r>
       <r>  -16.2541    1.0000 </r>
       <r>  -16.1965    1.0000 </r>
       <r>  -16.1654    1.0000 </r>
       <r>   -7.5443    1.0000 </r>
       <r>   -5.9355    1.0000 </r>
       <r>   -5.2334    1.0000 </r>
       <r>   -4.3157    1.0000 </r>
       <r>   -4.0621    1.0000 </r>
       <r>   -3.8262    1.0000 </r>
       <r>   -2.1065    1.0000 </r>
       <r>   -1.9235    1.0000 </r>
       <r>   -1.3512    1.0000 </r>
       <r>   -1.1859    1.0000 </r>
       <r>   -0.9452    1.0000 </r>
       <r>   -0.4865    1.0000 </r>
       <r>   -0.3535    1.0000 </r>
       <r>   -0.1442    1.0000 </r>
       <r>    0.1196    1.0000 </r>
       <r>    0.4553    1.0000 </r>
       <r>    0.6808    1.0000 </r>
       <r>    0.8788    1.0000 </r>
       <r>    9.4985    0.0000 </r>
       <r>   10.0803    0.0000 </r>
       <r>   10.6254    0.0000 </r>
       <r>   10.7988    0.0000 </r>
       <r>   11.5731    0.0000 </r>
       <r>   11.7448    0.0000 </r>
      </set>
      <set comment="kpoint 21">
       <r>  -17.8204    1.0000 </r>
       <r>  -17.3739    1.0000 </r>
       <r>  -16.9062    1.0000 </r>
       <r>  -16.2714    1.0000 </r>
       <r>  -16.1986    1.0000 </r>
       <r>  -16.1753    1.0000 </r>
       <r>   -7.1897    1.0000 </r>
       <r>   -6.2086    1.0000 </r>
       <r>   -5.2846    1.0000 </r>
       <r>   -4.2870    1.0000 </r>
       <r>   -3.9228    1.0000 </r>
       <r>   -3.8896    1.0000 </r>
       <r>   -2.1162    1.0000 </r>
       <r>   -2.0872    1.0000 </r>
       <r>   -1.3626    1.0000 </r>
       <r>   -1.1069    1.0000 </r>
       <r>   -0.9534    1.0000 </r>
       <r>   -0.5146    1.0000 </r>
       <r>   -0.2119    1.0000 </r>
       <r>   -0.0663    1.0000 </r>
       <r>    0.1273    1.0000 </r>
       <r>    0.4102    1.0000 </r>
       <r>    0.4666    1.0000 </r>
       <r>    0.9072    1.0000 </r>
       <r>    9.9969    0.0000 </r>
       <r>   10.3842    0.0000 </r>
       <r>   10.7486    0.0000 </r>
       <r>   11.0618    0.0000 </r>
       <r>   11.4690    0.0000 </r>
       <r>   11.7995    0.0000 </r>
      </set>
      <set comment="kpoint 22">
       <r>  -17.8821    1.0000 </r>
       <r>  -17.5258    1.0000 </r>
       <r>  -16.6758    1.0000 </r>
       <r>  -16.2470    1.0000 </r>
       <r>  -16.1882    1.0000 </r>
       <r>  -16.1695    1.0000 </r>
       <r>   -7.5462    1.0000 </r>
       <r>   -5.9401    1.0000 </r>
       <r>   -5.2275    1.0000 </r>
       <r>   -4.3366    1.0000 </r>
       <r>   -4.0628    1.0000 </r>
       <r>   -3.7873    1.0000 </r>
       <r>   -2.0835    1.0000 </r>
       <r>   -1.9467    1.0000 </r>
       <r>   -1.3211    1.0000 </r>
       <r>   -1.2569    1.0000 </r>
       <r>   -1.0061    1.0000 </r>
       <r>   -0.4129    1.0000 </r>
       <r>   -0.3023    1.0000 </r>
       <r>   -0.1128    1.0000 </r>
       <r>    0.1311    1.0000 </r>
       <r>    0.3254    1.0000 </r>
       <r>    0.6297    1.0000 </r>
       <r>    0.9780    1.0000 </r>
       <r>    9.3809    0.0000 </r>
       <r>   10.3556    0.0000 </r>
       <r>   10.5564    0.0000 </r>
       <r>   11.0696    0.0000 </r>
       <r>   11.2098    0.0000 </r>
       <r>   11.6577    0.0000 </r>
      </set>
      <set comment="kpoint 23">
       <r>  -18.0060    1.0000 </r>
       <r>  -17.6720    1.0000 </r>
       <r>  -16.3554    1.0000 </r>
       <r>  -16.2107    1.0000 </r>
       <r>  -16.1820    1.0000 </r>
       <r>  -16.1445    1.0000 </r>
       <r>   -8.0308    1.0000 </r>
       <r>   -5.6373    1.0000 </r>
       <r>   -5.0494    1.0000 </r>
       <r>   -4.4313    1.0000 </r>
       <r>   -4.3460    1.0000 </r>
       <r>   -3.6794    1.0000 </r>
       <r>   -1.9196    1.0000 </r>
       <r>   -1.6418    1.0000 </r>
       <r>   -1.4930    1.0000 </r>
       <r>   -1.1507    1.0000 </r>
       <r>   -0.9769    1.0000 </r>
       <r>   -0.5693    1.0000 </r>
       <r>   -0.4526    1.0000 </r>
       <r>   -0.3479    1.0000 </r>
       <r>   -0.0196    1.0000 </r>
       <r>    0.6494    1.0000 </r>
       <r>    0.8141    1.0000 </r>
       <r>    1.0194    1.0000 </r>
       <r>    8.7474    0.0000 </r>
       <r>    9.8375    0.0000 </r>
       <r>   10.3308    0.0000 </r>
       <r>   10.6859    0.0000 </r>
       <r>   11.2023    0.0000 </r>
       <r>   11.6546    0.0000 </r>
      </set>
      <set comment="kpoint 24">
       <r>  -17.9094    1.0000 </r>
       <r>  -17.5816    1.0000 </r>
       <r>  -16.5717    1.0000 </r>
       <r>  -16.2383    1.0000 </r>
       <r>  -16.1922    1.0000 </r>
       <r>  -16.1665    1.0000 </r>
       <r>   -7.6818    1.0000 </r>
       <r>   -5.8272    1.0000 </r>
       <r>   -5.2297    1.0000 </r>
       <r>   -4.3143    1.0000 </r>
       <r>   -4.1539    1.0000 </r>
       <r>   -3.7719    1.0000 </r>
       <r>   -2.0624    1.0000 </r>
       <r>   -1.8419    1.0000 </r>
       <r>   -1.3892    1.0000 </r>
       <r>   -1.2465    1.0000 </r>
       <r>   -0.9378    1.0000 </r>
       <r>   -0.4992    1.0000 </r>
       <r>   -0.3576    1.0000 </r>
       <r>   -0.1485    1.0000 </r>
       <r>    0.0858    1.0000 </r>
       <r>    0.4546    1.0000 </r>
       <r>    0.7408    1.0000 </r>
       <r>    0.9058    1.0000 </r>
       <r>    9.2299    0.0000 </r>
       <r>   10.0921    0.0000 </r>
       <r>   10.5301    0.0000 </r>
       <r>   10.9155    0.0000 </r>
       <r>   11.2947    0.0000 </r>
       <r>   11.6859    0.0000 </r>
      </set>
      <set comment="kpoint 25">
       <r>  -17.8139    1.0000 </r>
       <r>  -17.3992    1.0000 </r>
       <r>  -16.8748    1.0000 </r>
       <r>  -16.2691    1.0000 </r>
       <r>  -16.2072    1.0000 </r>
       <r>  -16.1825    1.0000 </r>
       <r>   -7.1834    1.0000 </r>
       <r>   -6.1632    1.0000 </r>
       <r>   -5.3742    1.0000 </r>
       <r>   -4.2334    1.0000 </r>
       <r>   -3.9670    1.0000 </r>
       <r>   -3.8855    1.0000 </r>
       <r>   -2.1545    1.0000 </r>
       <r>   -1.9574    1.0000 </r>
       <r>   -1.4629    1.0000 </r>
       <r>   -1.0967    1.0000 </r>
       <r>   -0.8814    1.0000 </r>
       <r>   -0.6391    1.0000 </r>
       <r>   -0.1558    1.0000 </r>
       <r>   -0.0370    1.0000 </r>
       <r>    0.1903    1.0000 </r>
       <r>    0.3665    1.0000 </r>
       <r>    0.5561    1.0000 </r>
       <r>    0.7852    1.0000 </r>
       <r>    9.9207    0.0000 </r>
       <r>   10.4283    0.0000 </r>
       <r>   10.7255    0.0000 </r>
       <r>   11.1366    0.0000 </r>
       <r>   11.4470    0.0000 </r>
       <r>   11.7121    0.0000 </r>
      </set>
      <set comment="kpoint 26">
       <r>  -17.8161    1.0000 </r>
       <r>  -17.3922    1.0000 </r>
       <r>  -16.8826    1.0000 </r>
       <r>  -16.2662    1.0000 </r>
       <r>  -16.2062    1.0000 </r>
       <r>  -16.1832    1.0000 </r>
       <r>   -7.1841    1.0000 </r>
       <r>   -6.1647    1.0000 </r>
       <r>   -5.3720    1.0000 </r>
       <r>   -4.2422    1.0000 </r>
       <r>   -3.9698    1.0000 </r>
       <r>   -3.8683    1.0000 </r>
       <r>   -2.1485    1.0000 </r>
       <r>   -1.9630    1.0000 </r>
       <r>   -1.4700    1.0000 </r>
       <r>   -1.0947    1.0000 </r>
       <r>   -0.9288    1.0000 </r>
       <r>   -0.5904    1.0000 </r>
       <r>   -0.1614    1.0000 </r>
       <r>    0.0217    1.0000 </r>
       <r>    0.1849    1.0000 </r>
       <r>    0.2941    1.0000 </r>
       <r>    0.5349    1.0000 </r>
       <r>    0.8291    1.0000 </r>
       <r>    9.8638    0.0000 </r>
       <r>   10.5288    0.0000 </r>
       <r>   10.7968    0.0000 </r>
       <r>   11.1246    0.0000 </r>
       <r>   11.3099    0.0000 </r>
       <r>   11.6848    0.0000 </r>
      </set>
      <set comment="kpoint 27">
       <r>  -17.7803    1.0000 </r>
       <r>  -17.2634    1.0000 </r>
       <r>  -17.0438    1.0000 </r>
       <r>  -16.2769    1.0000 </r>
       <r>  -16.2195    1.0000 </r>
       <r>  -16.1918    1.0000 </r>
       <r>   -6.8691    1.0000 </r>
       <r>   -6.3846    1.0000 </r>
       <r>   -5.4826    1.0000 </r>
       <r>   -4.1835    1.0000 </r>
       <r>   -3.9269    1.0000 </r>
       <r>   -3.9260    1.0000 </r>
       <r>   -2.1868    1.0000 </r>
       <r>   -1.7467    1.0000 </r>
       <r>   -1.7312    1.0000 </r>
       <r>   -0.8887    1.0000 </r>
       <r>   -0.8649    1.0000 </r>
       <r>   -0.8584    1.0000 </r>
       <r>    0.0136    1.0000 </r>
       <r>    0.0302    1.0000 </r>
       <r>    0.1957    1.0000 </r>
       <r>    0.4187    1.0000 </r>
       <r>    0.4405    1.0000 </r>
       <r>    0.6473    1.0000 </r>
       <r>   10.1463    0.0000 </r>
       <r>   10.6996    0.0000 </r>
       <r>   10.9236    0.0000 </r>
       <r>   11.2101    0.0000 </r>
       <r>   11.3152    0.0000 </r>
       <r>   11.3820    0.0000 </r>
      </set>
     </set>
    </set>
   </array>
  </eigenvalues>
  <separator name="orbital magnetization" >
   <v name="MAGDIPOLOUT">      0.00000000      0.00000000      0.00000000</v>
  </separator>
  <dos>
   <i name="efermi">      1.18149408 </i>
   <total>
    <array>
     <dimension dim="1">gridpoints</dimension>
     <dimension dim="2">spin</dimension>
     <field>energy</field>
     <field>total</field>
     <field>integrated</field>
     <set>
      <set comment="spin 1">
       <r>   -20.3723     0.0000     0.0000 </r>
       <r>   -20.2554     0.0000     0.0000 </r>
       <r>   -20.1384     0.0000     0.0000 </r>
       <r>   -20.0214     0.0000     0.0000 </r>
       <r>   -19.9044     0.0000     0.0000 </r>
       <r>   -19.7874     0.0000     0.0000 </r>
       <r>   -19.6705     0.0000     0.0000 </r>
       <r>   -19.5535     0.0000     0.0000 </r>
       <r>   -19.4365     0.0000     0.0000 </r>
       <r>   -19.3195     0.0000     0.0000 </r>
       <r>   -19.2025     0.0000     0.0000 </r>
       <r>   -19.0855     0.0000     0.0000 </r>
       <r>   -18.9686     0.0000     0.0000 </r>
       <r>   -18.8516     0.0000     0.0000 </r>
       <r>   -18.7346     0.0000     0.0000 </r>
       <r>   -18.6176     0.0000     0.0000 </r>
       <r>   -18.5006     0.0000     0.0000 </r>
       <r>   -18.3837     0.0000     0.0000 </r>
       <r>   -18.2667     1.1191     0.0481 </r>
       <r>   -18.1497     1.8300     0.2145 </r>
       <r>   -18.0327     3.4384     0.4967 </r>
       <r>   -17.9157     5.1331     0.9987 </r>
       <r>   -17.7987     4.5283     1.8996 </r>
       <r>   -17.6818     1.4020     2.0214 </r>
       <r>   -17.5648     1.7600     2.1771 </r>
       <r>   -17.4478     4.3705     2.4944 </r>
       <r>   -17.3308     4.6656     3.4859 </r>
       <r>   -17.2138     1.5830     3.7972 </r>
       <r>   -17.0969     0.7246     3.9236 </r>
       <r>   -16.9799     0.8045     3.9965 </r>
       <r>   -16.8629     5.2020     4.2642 </r>
       <r>   -16.7459     4.7280     5.2316 </r>
       <r>   -16.6289     2.2164     5.5929 </r>
       <r>   -16.5120     1.3480     5.7932 </r>
       <r>   -16.3950     0.8194     5.9211 </r>
       <r>   -16.2780     0.2850     5.9928 </r>
       <r>   -16.1610    28.1076    11.5797 </r>
       <r>   -16.0440     0.0000    12.0000 </r>
       <r>   -15.9270     0.0000    12.0000 </r>
       <r>   -15.8101     0.0000    12.0000 </r>
       <r>   -15.6931     0.0000    12.0000 </r>
       <r>   -15.5761     0.0000    12.0000 </r>
       <r>   -15.4591     0.0000    12.0000 </r>
       <r>   -15.3421     0.0000    12.0000 </r>
       <r>   -15.2252     0.0000    12.0000 </r>
       <r>   -15.1082     0.0000    12.0000 </r>
       <r>   -14.9912     0.0000    12.0000 </r>
       <r>   -14.8742     0.0000    12.0000 </r>
       <r>   -14.7572     0.0000    12.0000 </r>
       <r>   -14.6402     0.0000    12.0000 </r>
       <r>   -14.5233     0.0000    12.0000 </r>
       <r>   -14.4063     0.0000    12.0000 </r>
       <r>   -14.2893     0.0000    12.0000 </r>
       <r>   -14.1723     0.0000    12.0000 </r>
       <r>   -14.0553     0.0000    12.0000 </r>
       <r>   -13.9384     0.0000    12.0000 </r>
       <r>   -13.8214     0.0000    12.0000 </r>
       <r>   -13.7044     0.0000    12.0000 </r>
       <r>   -13.5874     0.0000    12.0000 </r>
       <r>   -13.4704     0.0000    12.0000 </r>
       <r>   -13.3535     0.0000    12.0000 </r>
       <r>   -13.2365     0.0000    12.0000 </r>
       <r>   -13.1195     0.0000    12.0000 </r>
       <r>   -13.0025     0.0000    12.0000 </r>
       <r>   -12.8855     0.0000    12.0000 </r>
       <r>   -12.7685     0.0000    12.0000 </r>
       <r>   -12.6516     0.0000    12.0000 </r>
       <r>   -12.5346     0.0000    12.0000 </r>
       <r>   -12.4176     0.0000    12.0000 </r>
       <r>   -12.3006     0.0000    12.0000 </r>
       <r>   -12.1836     0.0000    12.0000 </r>
       <r>   -12.0667     0.0000    12.0000 </r>
       <r>   -11.9497     0.0000    12.0000 </r>
       <r>   -11.8327     0.0000    12.0000 </r>
       <r>   -11.7157     0.0000    12.0000 </r>
       <r>   -11.5987     0.0000    12.0000 </r>
       <r>   -11.4817     0.0000    12.0000 </r>
       <r>   -11.3648     0.0000    12.0000 </r>
       <r>   -11.2478     0.0000    12.0000 </r>
       <r>   -11.1308     0.0000    12.0000 </r>
       <r>   -11.0138     0.0000    12.0000 </r>
       <r>   -10.8968     0.0000    12.0000 </r>
       <r>   -10.7799     0.0000    12.0000 </r>
       <r>   -10.6629     0.0000    12.0000 </r>
       <r>   -10.5459     0.0000    12.0000 </r>
       <r>   -10.4289     0.0000    12.0000 </r>
       <r>   -10.3119     0.0000    12.0000 </r>
       <r>   -10.1950     0.0000    12.0000 </r>
       <r>   -10.0780     0.0000    12.0000 </r>
       <r>    -9.9610     0.0000    12.0000 </r>
       <r>    -9.8440     0.0000    12.0000 </r>
       <r>    -9.7270     0.0000    12.0000 </r>
       <r>    -9.6100     0.0000    12.0000 </r>
       <r>    -9.4931     0.0000    12.0000 </r>
       <r>    -9.3761     0.0000    12.0000 </r>
       <r>    -9.2591     0.0000    12.0000 </r>
       <r>    -9.1421     0.0000    12.0000 </r>
       <r>    -9.0251     0.0000    12.0000 </r>
       <r>    -8.9082     0.0000    12.0000 </r>
       <r>    -8.7912     0.0000    12.0000 </r>
       <r>    -8.6742     0.0000    12.0000 </r>
       <r>    -8.5572     0.0000    12.0000 </r>
       <r>    -8.4402     0.0000    12.0000 </r>
       <r>    -8.3232     0.0000    12.0000 </r>
       <r>    -8.2063     0.0426    12.0005 </r>
       <r>    -8.0893     0.3305    12.0210 </r>
       <r>    -7.9723     0.4762    12.0709 </r>
       <r>    -7.8553     0.6911    12.1389 </r>
       <r>    -7.7383     0.8920    12.2321 </r>
       <r>    -7.6214     1.2450    12.3546 </r>
       <r>    -7.5044     1.7373    12.5270 </r>
       <r>    -7.3874     3.3685    12.7996 </r>
       <r>    -7.2704     4.3343    13.5917 </r>
       <r>    -7.1534     0.8502    13.9014 </r>
       <r>    -7.0365     0.4432    13.9748 </r>
       <r>    -6.9195     0.2392    14.0132 </r>
       <r>    -6.8025     0.2772    14.0402 </r>
       <r>    -6.6855     0.4273    14.0812 </r>
       <r>    -6.5685     0.6771    14.1437 </r>
       <r>    -6.4515     1.1543    14.2485 </r>
       <r>    -6.3346     1.9194    14.4260 </r>
       <r>    -6.2176     5.8546    14.8693 </r>
       <r>    -6.1006     2.8375    15.4142 </r>
       <r>    -5.9836     1.5630    15.6647 </r>
       <r>    -5.8666     0.9766    15.8078 </r>
       <r>    -5.7497     0.6573    15.9025 </r>
       <r>    -5.6327     0.6901    15.9664 </r>
       <r>    -5.5157     0.0806    16.0034 </r>
       <r>    -5.3987     1.8073    16.0969 </r>
       <r>    -5.2817     3.6808    16.4209 </r>
       <r>    -5.1648     2.8865    16.7968 </r>
       <r>    -5.0478     2.9135    17.1359 </r>
       <r>    -4.9308     2.1441    17.4335 </r>
       <r>    -4.8138     1.4917    17.6403 </r>
       <r>    -4.6968     1.0883    17.7899 </r>
       <r>    -4.5798     0.7434    17.8969 </r>
       <r>    -4.4629     1.4194    17.9939 </r>
       <r>    -4.3459    19.3475    18.8545 </r>
       <r>    -4.2289     9.3111    20.2944 </r>
       <r>    -4.1119     6.2192    21.0696 </r>
       <r>    -3.9949     4.5994    21.7803 </r>
       <r>    -3.8780     7.9881    22.2817 </r>
       <r>    -3.7610     6.8961    23.1946 </r>
       <r>    -3.6440     3.2253    23.7691 </r>
       <r>    -3.5270     0.4308    23.9909 </r>
       <r>    -3.4100     0.0000    24.0000 </r>
       <r>    -3.2930     0.0000    24.0000 </r>
       <r>    -3.1761     0.0000    24.0000 </r>
       <r>    -3.0591     0.0000    24.0000 </r>
       <r>    -2.9421     0.0000    24.0000 </r>
       <r>    -2.8251     0.0000    24.0000 </r>
       <r>    -2.7081     0.0000    24.0000 </r>
       <r>    -2.5912     0.0000    24.0000 </r>
       <r>    -2.4742     0.0000    24.0000 </r>
       <r>    -2.3572     0.0000    24.0000 </r>
       <r>    -2.2402     0.0000    24.0000 </r>
       <r>    -2.1232     9.7223    24.2774 </r>
       <r>    -2.0063     8.8320    25.6974 </r>
       <r>    -1.8893     5.4221    26.4051 </r>
       <r>    -1.7723     7.4397    27.2438 </r>
       <r>    -1.6553     7.4752    28.0072 </r>
       <r>    -1.5383    10.4497    28.8187 </r>
       <r>    -1.4213     5.1950    29.7384 </r>
       <r>    -1.3044     1.1704    30.0328 </r>
       <r>    -1.1874    15.4370    30.8466 </r>
       <r>    -1.0704     2.6391    31.8367 </r>
       <r>    -0.9534    15.2293    32.4726 </r>
       <r>    -0.8364     1.2525    33.8658 </r>
       <r>    -0.7195     3.6726    34.1271 </r>
       <r>    -0.6025     6.5065    34.8413 </r>
       <r>    -0.4855    10.8008    35.9491 </r>
       <r>    -0.3685     7.4237    37.2380 </r>
       <r>    -0.2515     4.6910    37.8471 </r>
       <r>    -0.1345    11.5318    38.7800 </r>
       <r>    -0.0176     5.8443    39.9268 </r>
       <r>     0.0994    12.6670    40.7359 </r>
       <r>     0.2164     0.0000    42.0000 </r>
       <r>     0.3334    10.5002    42.3892 </r>
       <r>     0.4504     4.1028    43.6133 </r>
       <r>     0.5673     4.2891    44.1193 </r>
       <r>     0.6843     6.7056    44.7312 </r>
       <r>     0.8013     9.8584    45.7880 </r>
       <r>     0.9183     7.5298    46.5625 </r>
       <r>     1.0353     8.6662    47.8219 </r>
       <r>     1.1522     0.0000    48.0000 </r>
       <r>     1.2692     0.0000    48.0000 </r>
       <r>     1.3862     0.0000    48.0000 </r>
       <r>     1.5032     0.0000    48.0000 </r>
       <r>     1.6202     0.0000    48.0000 </r>
       <r>     1.7372     0.0000    48.0000 </r>
       <r>     1.8541     0.0000    48.0000 </r>
       <r>     1.9711     0.0000    48.0000 </r>
       <r>     2.0881     0.0000    48.0000 </r>
       <r>     2.2051     0.0000    48.0000 </r>
       <r>     2.3221     0.0000    48.0000 </r>
       <r>     2.4390     0.0000    48.0000 </r>
       <r>     2.5560     0.0000    48.0000 </r>
       <r>     2.6730     0.0000    48.0000 </r>
       <r>     2.7900     0.0000    48.0000 </r>
       <r>     2.9070     0.0000    48.0000 </r>
       <r>     3.0240     0.0000    48.0000 </r>
       <r>     3.1409     0.0000    48.0000 </r>
       <r>     3.2579     0.0000    48.0000 </r>
       <r>     3.3749     0.0000    48.0000 </r>
       <r>     3.4919     0.0000    48.0000 </r>
       <r>     3.6089     0.0000    48.0000 </r>
       <r>     3.7258     0.0000    48.0000 </r>
       <r>     3.8428     0.0000    48.0000 </r>
       <r>     3.9598     0.0000    48.0000 </r>
       <r>     4.0768     0.0000    48.0000 </r>
       <r>     4.1938     0.0000    48.0000 </r>
       <r>     4.3107     0.0000    48.0000 </r>
       <r>     4.4277     0.0000    48.0000 </r>
       <r>     4.5447     0.0000    48.0000 </r>
       <r>     4.6617     0.0000    48.0000 </r>
       <r>     4.7787     0.0000    48.0000 </r>
       <r>     4.8957     0.0000    48.0000 </r>
       <r>     5.0126     0.0000    48.0000 </r>
       <r>     5.1296     0.0000    48.0000 </r>
       <r>     5.2466     0.0000    48.0000 </r>
       <r>     5.3636     0.0000    48.0000 </r>
       <r>     5.4806     0.0000    48.0000 </r>
       <r>     5.5975     0.0000    48.0000 </r>
       <r>     5.7145     0.0000    48.0000 </r>
       <r>     5.8315     0.0000    48.0000 </r>
       <r>     5.9485     0.0000    48.0000 </r>
       <r>     6.0655     0.0000    48.0000 </r>
       <r>     6.1825     0.0000    48.0000 </r>
       <r>     6.2994     0.0000    48.0000 </r>
       <r>     6.4164     0.0000    48.0000 </r>
       <r>     6.5334     0.0000    48.0000 </r>
       <r>     6.6504     0.0000    48.0000 </r>
       <r>     6.7674     0.0000    48.0000 </r>
       <r>     6.8843     0.0000    48.0000 </r>
       <r>     7.0013     0.0000    48.0000 </r>
       <r>     7.1183     0.0000    48.0000 </r>
       <r>     7.2353     0.0134    48.0005 </r>
       <r>     7.3523     0.0543    48.0042 </r>
       <r>     7.4692     0.1228    48.0143 </r>
       <r>     7.5862     0.2089    48.0341 </r>
       <r>     7.7032     0.2549    48.0614 </r>
       <r>     7.8202     0.2824    48.0930 </r>
       <r>     7.9372     0.3100    48.1272 </r>
       <r>     8.0542     0.3571    48.1662 </r>
       <r>     8.1711     0.4069    48.2108 </r>
       <r>     8.2881     0.4594    48.2615 </r>
       <r>     8.4051     0.5142    48.3184 </r>
       <r>     8.5221     0.5956    48.3822 </r>
       <r>     8.6391     0.7530    48.4611 </r>
       <r>     8.7560     0.8551    48.5580 </r>
       <r>     8.8730     0.8515    48.6546 </r>
       <r>     8.9900     0.9144    48.7578 </r>
       <r>     9.1070     0.9794    48.8686 </r>
       <r>     9.2240     1.0464    48.9870 </r>
       <r>     9.3410     1.4799    49.1298 </r>
       <r>     9.4579     1.4814    49.3073 </r>
       <r>     9.5749     1.2569    49.4634 </r>
       <r>     9.6919     1.3300    49.6104 </r>
       <r>     9.8089     1.5143    49.7798 </r>
       <r>     9.9259     2.0904    49.9812 </r>
       <r>    10.0428     1.1665    50.1590 </r>
       <r>    10.1598     1.5208    50.2969 </r>
       <r>    10.2768     4.4578    50.6135 </r>
       <r>    10.3938    10.0703    51.6371 </r>
       <r>    10.5108     3.8831    52.2523 </r>
       <r>    10.6277     7.6780    52.9054 </r>
       <r>    10.7447     7.4931    53.8213 </r>
       <r>    10.8617     2.9200    54.4058 </r>
       <r>    10.9787     3.5864    54.7258 </r>
       <r>    11.0957     7.6838    55.3774 </r>
       <r>    11.2127     3.0475    56.0234 </r>
       <r>    11.3296     6.7055    56.6785 </r>
       <r>    11.4466     7.6825    57.5450 </r>
       <r>    11.5636     1.6787    58.0305 </r>
       <r>    11.6806    15.4134    58.4301 </r>
       <r>    11.7976     2.1664    59.6123 </r>
       <r>    11.9145     0.9427    59.7812 </r>
       <r>    12.0315     0.5602    59.8648 </r>
       <r>    12.1485     0.3979    59.9205 </r>
       <r>    12.2655     0.2645    59.9590 </r>
       <r>    12.3825     0.1499    59.9831 </r>
       <r>    12.4995     0.0643    59.9952 </r>
       <r>    12.6164     0.0145    59.9995 </r>
       <r>    12.7334     0.0000    60.0000 </r>
       <r>    12.8504     0.0000    60.0000 </r>
       <r>    12.9674     0.0000    60.0000 </r>
       <r>    13.0844     0.0000    60.0000 </r>
       <r>    13.2013     0.0000    60.0000 </r>
       <r>    13.3183     0.0000    60.0000 </r>
       <r>    13.4353     0.0000    60.0000 </r>
       <r>    13.5523     0.0000    60.0000 </r>
       <r>    13.6693     0.0000    60.0000 </r>
       <r>    13.7862     0.0000    60.0000 </r>
       <r>    13.9032     0.0000    60.0000 </r>
       <r>    14.0202     0.0000    60.0000 </r>
       <r>    14.1372     0.0000    60.0000 </r>
       <r>    14.2542     0.0000    60.0000 </r>
       <r>    14.3712     0.0000    60.0000 </r>
       <r>    14.4881     0.0000    60.0000 </r>
       <r>    14.6051     0.0000    60.0000 </r>
       <r>    14.7221     0.0000    60.0000 </r>
      </set>
     </set>
    </array>
   </total>
  </dos>
 </calculation>
 <structure name="finalpos" >
  <crystal>
   <varray name="basis" >
    <v>       4.91380000       0.00000000       0.00000000 </v>
    <v>      -2.45690000       4.25547563       0.00000000 </v>
    <v>       0.00000000       0.00000000       5.40520000 </v>
   </varray>
   <i name="volume">    113.02573808 </i>
   <varray name="rec_basis" >
    <v>       0.20350849       0.11749568       0.00000000 </v>
    <v>       0.00000000       0.23499136       0.00000000 </v>
    <v>       0.00000000       0.00000000       0.18500703 </v>
   </varray>
  </crystal>
  <varray name="positions" >
   <v>       0.46980000       0.00000000       0.66666667 </v>
   <v>       0.53020000       0.53020000       0.00000000 </v>
   <v>       0.00000000       0.46980000       0.33333333 </v>
   <v>       0.41450000       0.26620000       0.78560000 </v>
   <v>       0.58550000       0.85170000       0.88106667 </v>
   <v>       0.14830000       0.73380000       0.54773333 </v>
   <v>       0.26620000       0.41450000       0.21440000 </v>
   <v>       0.85170000       0.58550000       0.11893333 </v>
   <v>       0.73380000       0.14830000       0.45226667 </v>
  </varray>
 </structure>
</modeling>
