unknown system                          
   1.00000000000000     
     4.913800    0.000000    0.000000
    -2.456900    4.255476    0.000000
     0.000000    0.000000    5.405200
   Si   O 
     3     6
Direct
  0.469800  0.000000  0.666667
  0.530200  0.530200  0.000000
  0.000000  0.469800  0.333333
  0.414500  0.266200  0.785600
  0.585500  0.851700  0.881067
  0.148300  0.733800  0.547733
  0.266200  0.414500  0.214400
  0.851700  0.585500  0.118933
  0.733800  0.148300  0.452267
 
   60   60   64
  1.4686      1.4190      1.4080      1.4251      1.4646      1.5247      1.6046      1.7030      1.8178      1.9458    
  2.0836      2.2274      2.3733      2.5176      2.6570      2.7882      2.9087      3.0180      3.1210      3.2296    
  3.3622      3.5414      3.7919      4.1402      4.6189      5.2728      6.1635      7.3678      8.9674      11.036    
  13.627      16.768      20.455      24.642      29.219      33.980      38.611      42.698      45.788      47.480    
  47.533      45.922      42.855      38.711      33.945      28.993      24.199      19.795      15.910      12.598    
  9.8634      7.6723      5.9647      4.6631      3.6852      2.9562      2.4168      2.0250      1.7514      1.5729    
  1.4190      1.3667      1.3573      1.3803      1.4308      1.5070      1.6084      1.7341      1.8817      2.0478    
  2.2279      2.4167      2.6085      2.7973      2.9777      3.1440      3.2913      3.4159      3.5183      3.6046    
  3.6882      3.7882      3.9282      4.1329      4.4290      4.8479      5.4316      6.2352      7.3233      8.7605    
  10.599      12.867      15.563      18.648      22.043      25.611      29.152      32.397      35.039      36.780    
  37.398      36.800      35.050      32.350      28.993      25.294      21.539      17.948      14.672      11.799    
  9.3679      7.3783      5.7969      4.5690      3.6304      2.9195      2.3859      1.9927      1.7138      1.5288    
  1.4080      1.3572      1.3514      1.3814      1.4427      1.5340      1.6554      1.8065      1.9850      2.1877    
  2.4098      2.6455      2.8875      3.1282      3.3591      3.5719      3.7583      3.9116      4.0281      4.1090    
  4.1620      4.2017      4.2496      4.3305      4.4702      4.6950      5.0348      5.5275      6.2196      7.1629    
  8.4051      9.9788      11.892      14.122      16.611      19.261      21.937      24.460      26.624      28.217    
  29.059      29.045      28.163      26.503      24.237      21.576      18.737      15.907      13.235      10.821    
  8.7274      6.9739      5.5508      4.4241      3.5472      2.8723      2.3586      1.9756      1.7011      1.5174    
  1.4250      1.3802      1.3814      1.4204      1.4932      1.5996      1.7403      1.9153      2.1234      2.3615    
  2.6255      2.9096      3.2064      3.5065      3.7991      4.0719      4.3126      4.5106      4.6577      4.7503    
  4.7908      4.7888      4.7626      4.7366      4.7381      4.7940      4.9305      5.1753      5.5609      6.1244    
  6.9043      7.9329      9.2271      10.780      12.556      14.489      16.481      18.410      20.132      21.498    
  22.371      22.654      22.307      21.355      19.889      18.041      15.963      13.804      11.692      9.7289    
  7.9805      6.4816      5.2376      4.2316      3.4334      2.8087      2.3269      1.9642      1.7028      1.5279    
  1.4645      1.4307      1.4427      1.4933      1.5795      1.7017      1.8615      2.0598      2.2962      2.5688    
  2.8744      3.2082      3.5634      3.9301      4.2954      4.6432      4.9561      5.2179      5.4151      5.5387    
  5.5856      5.5606      5.4782      5.3615      5.2392      5.1415      5.0969      5.1312      5.2693      5.5371    
  5.9622      6.5710      7.3824      8.4009      9.6097      10.968      12.410      13.849      15.182      16.300    
  17.102      17.506      17.463      16.970      16.064      14.825      13.352      11.755      10.138      8.5887    
  7.1730      5.9295      4.8732      3.9996      3.2920      2.7285      2.2885      1.9549      1.7143      1.5550    
  1.5246      1.5069      1.5341      1.5997      1.7018      1.8413      2.0208      2.2423      2.5063      2.8126    
  3.1593      3.5434      3.9595      4.3985      4.8461      5.2832      5.6871      6.0347      6.3053      6.4828    
  6.5580      6.5306      6.4111      6.2204      5.9880      5.7475      5.5328      5.3740      5.2960      5.3199    
  5.4650      5.7498      6.1898      6.7931      7.5549      8.4530      9.4463      10.475      11.467      12.342    
  13.023      13.442      13.554      13.341      12.813      12.012      11.000      9.8541      8.6522      7.4659    
  6.3522      5.3494      4.4770      3.7388      3.1283      2.6339      2.2435      1.9465      1.7339      1.5966    
  1.6044      1.6084      1.6555      1.7403      1.8615      2.0208      2.2215      2.4668      2.7585      3.0977    
  3.4849      3.9192      4.3975      4.9122      5.4494      5.9879      6.5003      6.9564      7.3265      7.5853    
  7.7153      7.7100      7.5751      7.3293      7.0017      6.6290      6.2508      5.9047      5.6219      5.4255    
  5.3324      5.3555      5.5048      5.7867      6.2008      6.7360      7.3676      8.0569      8.7535      9.3996    
  9.9361      10.310      10.480      10.424      10.138      9.6399      8.9661      8.1668      7.2979      6.4138    
  5.5606      4.7722      4.0696      3.4618      2.9493      2.5282      2.1930      1.9390      1.7608      1.6521    
  1.7029      1.7342      1.8066      1.9153      2.0597      2.2422      2.4667      2.7374      3.0575      3.4296    
  3.8563      4.3398      4.8799      5.4717      6.1029      6.7516      7.3873      7.9728      8.4690      8.8394    
  9.0559      9.1026      8.9791      8.7003      8.2950      7.8024      7.2677      6.7365      6.2494      5.8374    
  5.5213      5.3135      5.2204      5.2448      5.3855      5.6358      5.9803      6.3938      6.8414      7.2818    
  7.6710      7.9673      8.1361      8.1540      8.0109      7.7114      7.2741      6.7294      6.1152      5.4707    
  4.8312      4.2248      3.6713      3.1824      2.7634      2.4158      2.1392      1.9329      1.7947      1.7203    
  1.8179      1.8820      1.9852      2.1234      2.2961      2.5063      2.7585      3.0576      3.4077      3.8133    
  4.2788      4.8095      5.4091      6.0767      6.8030      7.5672      8.3367      9.0692      9.7162      10.229    
  10.567      10.701      10.622      10.338      9.8771      9.2798      8.5973      7.8839      7.1902      6.5583    
  6.0180      5.5866      5.2716      5.0731      4.9875      5.0076      5.1222      5.3132      5.5557      5.8192    
  6.0705      6.2768      6.4096      6.4475      6.3782      6.1992      5.9181      5.5513      5.1227      4.6592    
  4.1867      3.7276      3.2991      2.9139      2.5801      2.3028      2.0852      1.9293      1.8351      1.7998    
  1.9460      2.0480      2.1878      2.3615      2.5687      2.8125      3.0978      3.4297      3.8132      4.2537    
  4.7578      5.3335      5.9887      6.7278      7.5461      8.4261      9.3353      10.228      11.046      11.732    
  12.226      12.488      12.492      12.238      11.749      11.067      10.249      9.3582      8.4566      7.5986    
  6.8257      6.1649      5.6289      5.2191      4.9298      4.7516      4.6732      4.6797      4.7518      4.8652    
  4.9934      5.1094      5.1895      5.2147      5.1724      5.0573      4.8707      4.6207      4.3207      3.9877    
  3.6399      3.2944      2.9665      2.6682      2.4091      2.1962      2.0351      1.9296      1.8812      1.8883    
  2.0837      2.2278      2.4096      2.6253      2.8742      3.1592      3.4849      3.8564      4.2787      4.7577    
  5.3011      5.9197      6.6257      7.4292      8.3322      9.3226      10.371      11.430      12.436      13.319    
  14.006      14.435      14.567      14.385      13.904      13.164      12.228      11.168      10.058      8.9687    
  7.9538      7.0527      6.2869      5.6623      5.1740      4.8107      4.5586      4.4029      4.3263      4.3085    
  4.3263      4.3561      4.3766      4.3702      4.3248      4.2338      4.0961      3.9151      3.6977      3.4537    
  3.1948      2.9339      2.6837      2.4556      2.2593      2.1029      1.9932      1.9355      1.9324      1.9832    
  2.2272      2.4164      2.6451      2.9093      3.2081      3.5435      3.9192      4.3398      4.8094      5.3334    
  5.9196      6.5807      7.3328      8.1922      9.1686      10.258      11.438      12.662      13.864      14.963    
  15.872      16.510      16.815      16.754      16.325      15.564      14.534      13.318      12.004      10.679    
  9.4126      8.2594      7.2516      6.4022      5.7092      5.1609      4.7412      4.4329      4.2183      4.0786    
  3.9929      3.9391      3.8962      3.8469      3.7787      3.6847      3.5624      3.4132      3.2410      3.0514    
  2.8516      2.6505      2.4580      2.2842      2.1385      2.0293      1.9645      1.9499      1.9894      2.0830    
  2.3731      2.6084      2.8874      3.2063      3.5635      3.9598      4.3976      4.8798      5.4090      5.9888    
  6.6258      7.3328      8.1289      9.0361      10.073      11.246      12.540      13.917      15.312      16.636    
  17.790      18.673      19.198      19.308      18.984      18.248      17.160      15.811      14.303      12.740    
  11.214      9.7962      8.5328      7.4462      6.5387      5.7991      5.2096      4.7499      4.4001      4.1410    
  3.9527      3.8139      3.7034      3.6026      3.4980      3.3816      3.2501      3.1041      2.9466      2.7815    
  2.6138      2.4494      2.2957      2.1608      2.0531      1.9813      1.9535      1.9762      2.0536      2.1866    
  2.5178      2.7977      3.1286      3.5068      3.9304      4.3988      4.9124      5.4716      6.0765      6.7279    
  7.4295      8.1922      9.0360      9.9872      11.072      12.309      13.696      15.204      16.773      18.317    
  19.723      20.875      21.661      21.996      21.834      21.179      20.083      18.638      16.957      15.165    
  13.374      11.679      10.144      8.8050      7.6703      6.7305      5.9654      5.3513      4.8650      4.4851    
  4.1915      3.9632      3.7789      3.6186      3.4668      3.3134      3.1541      2.9892      2.8216      2.6550    
  2.4935      2.3420      2.2064      2.0932      2.0098      1.9642      1.9643      2.0167      2.1257      2.2929    
  2.6576      2.9781      3.3595      3.7993      4.2954      4.8460      5.4494      6.1027      6.8027      7.5460    
  8.3324      9.1688      10.073      11.072      12.200      13.483      14.935      16.541      18.253      19.988    
  21.635      23.061      24.133      24.737      24.797      24.290      23.250      21.763      19.951      17.953    
  15.906      13.928      12.106      10.496      9.1165      7.9634      7.0146      6.2418      5.6167      5.1139    
  4.7113      4.3880      4.1225      3.8941      3.6849      3.4824      3.2806      3.0790      2.8805      2.6895    
  2.5102      2.3475      2.2070      2.0950      2.0183      1.9843      2.0003      2.0724      2.2049      2.3997    
  2.7886      3.1438      3.5716      4.0717      4.6428      5.2827      5.9876      6.7516      7.5670      8.4260    
  9.3227      10.258      11.245      12.309      13.483      14.804      16.295      17.960      19.767      21.648    
  23.495      25.174      26.534      27.434      27.766      27.472      26.563      25.109      23.230      21.076    
  18.803      16.554      14.441      12.543      10.899      9.5148      8.3697      7.4318      6.6655      6.0391    
  5.5260      5.1036      4.7500      4.4439      4.1663      3.9025      3.6444      3.3898      3.1417      2.9053    
  2.6861      2.4891      2.3200      2.1858      2.0939      2.0521      2.0675      2.1459      2.2910      2.5048    
  2.9084      3.2904      3.7575      4.3124      4.9560      5.6868      6.5001      7.3875      8.3370      9.3354    
  10.371      11.438      12.540      13.696      14.935      16.296      17.811      19.497      21.345      23.305    
  25.288      27.165      28.782      29.976      30.608      30.585      29.882      28.545      26.685      24.452    
  22.014      19.535      17.152      14.970      13.050      11.416      10.058      8.9451      8.0342      7.2853    
  6.6638      6.1417      5.6952      5.3025      4.9439      4.6039      4.2727      3.9471      3.6296      3.3263    
  3.0444      2.7900      2.5691      2.3886      2.2571      2.1840      2.1775      2.2440      2.3870      2.6081    
  3.0174      3.4151      3.9111      4.5107      5.2184      6.0350      6.9565      7.9732      9.0696      10.228    
  11.430      12.662      13.917      15.203      16.541      17.960      19.498      21.180      23.016      24.983    
  27.016      29.008      30.814      32.264      33.193      33.472      33.037      31.902      30.156      27.941    
  25.430      22.797      20.201      17.768      15.587      13.704      12.125      10.828      9.7681      8.8984    
  8.1735      7.5562      7.0167      6.5310      6.0787      5.6441      5.2177      4.7966      4.3840      3.9873    
  3.6156      3.2770      2.9785      2.7269      2.5311      2.4017      2.3489      2.3807      2.5017      2.7137    
  3.1206      3.5181      4.0283      4.6584      5.4159      6.3058      7.3266      8.4691      9.7163      11.046    
  12.436      13.864      15.312      16.773      18.252      19.767      21.345      23.017      24.804      26.708    
  28.700      30.704      32.601      34.229      35.412      35.991      35.860      34.995      33.452      31.360    
  28.884      26.205      23.491      20.886      18.499      16.400      14.617      13.141      11.936      10.950    
  10.130      9.4265      8.8006      8.2213      7.6655      7.1174      6.5687      6.0192      5.4754      4.9477    
  4.4488      3.9900      3.5808      3.2286      2.9416      2.7300      2.6048      2.5762      2.6508      2.8320    
  3.2294      3.6049      4.1097      4.7510      5.5391      6.4828      7.5849      8.8391      10.229      11.731    
  13.318      14.963      16.636      18.317      19.988      21.648      23.305      24.983      26.708      28.504    
  30.373      32.282      34.145      35.825      37.159      37.980      38.155      37.614      36.367      34.506    
  32.180      29.575      26.868      24.209      21.720      19.488      17.559      15.943      14.615      13.530    
  12.629      11.855      11.157      10.492      9.8305      9.1543      8.4560      7.7393      7.0168      6.3060    
  5.6265      4.9961      4.4287      3.9344      3.5209      3.1966      2.9711      2.8546      2.8558      2.9800    
  3.3620      3.6884      4.1625      4.7910      5.5852      6.5572      7.7146      9.0555      10.567      12.226    
  14.005      15.872      17.790      19.723      21.635      23.495      25.288      27.016      28.700      30.373    
  32.064      33.763      35.418      36.949      38.245      39.165      39.572      39.364      38.503      37.029    
  35.044      32.691      30.141      27.573      25.127      22.894      20.931      19.259      17.870      16.727    
  15.776      14.958      14.209      13.477      12.720      11.911      11.042      10.120      9.1655      8.2072    
  7.2766      6.4028      5.6089      4.9108      4.3184      3.8386      3.4776      3.2429      3.1418      3.1803    
  3.5413      3.7883      4.2019      4.7887      5.5599      6.5297      7.7096      9.1027      10.702      12.488    
  14.435      16.511      18.673      20.875      23.061      25.174      27.165      29.008      30.704      32.282    
  33.763      35.135      36.398      37.547      38.551      39.336      39.800      39.833      39.367      38.386    
  36.937      35.106      33.008      30.774      28.553      26.491      24.653      23.065      21.723      20.604    
  19.663      18.845      18.085      17.317      16.487      15.556      14.507      13.350      12.112      10.836    
  9.5713      8.3633      7.2508      6.2616      5.4129      4.7132      4.1658      3.7725      3.5355      3.4577    
  3.7920      3.9283      4.2496      4.7624      5.4778      6.4107      7.5753      8.9798      10.623      12.492    
  14.567      16.816      19.198      21.661      24.133      26.534      28.782      30.814      32.601      34.145    
  35.418      36.398      37.121      37.657      38.079      38.419      38.656      38.724      38.547      38.073    
  37.289      36.214      34.890      33.375      31.745      30.107      28.590      27.267      26.134      25.170    
  24.343      23.606      22.898      22.150      21.293      20.268      19.048      17.636      16.068      14.405    
  12.715      11.068      9.5249      8.1326      6.9222      5.9097      5.0994      4.4878      4.0693      3.8386    
  4.1405      4.1333      4.3305      4.7364      5.3615      6.2207      7.3298      8.7010      10.339      12.238    
  14.384      16.753      19.308      21.995      24.737      27.434      29.976      32.264      34.229      35.825    
  36.949      37.547      37.657      37.406      36.968      36.512      36.152      35.923      35.796      35.715    
  35.619      35.458      35.188      34.768      34.174      33.417      32.560      31.720      30.992      30.363    
  29.805      29.282      28.739      28.106      27.301      26.244      24.885      23.217      21.280      19.154    
  16.938      14.734      12.632      10.703      9.0005      7.5534      6.3734      5.4564      4.7893      4.3557    
  4.6192      4.4294      4.4701      4.7377      5.2392      5.9884      7.0020      8.2951      9.8769      11.749    
  13.903      16.324      18.984      21.834      24.797      27.766      30.608      33.193      35.412      37.158    
  38.245      38.551      38.079      36.968      35.470      33.894      32.529      31.576      31.126      31.170    
  31.640      32.428      33.399      34.396      35.261      35.871      36.177      36.219      36.130      36.042    
  35.955      35.837      35.638      35.284      34.674      33.702      32.283      30.386      28.052      25.383    
  22.519      19.613      16.796      14.176      11.827      9.7983      8.1139      6.7745      5.7639      5.0554    
  5.2728      4.8482      4.6949      4.7935      5.1413      5.7480      6.6292      7.8020      9.2791      11.067    
  13.164      15.564      18.248      21.180      24.290      27.473      30.585      33.472      35.991      37.979    
  39.165      39.337      38.419      36.512      33.893      30.985      28.258      26.130      24.882      24.635    
  25.372      26.970      29.219      31.837      34.509      36.937      38.908      40.343      41.313      42.006    
  42.611      43.137      43.531      43.704      43.527      42.846      41.527      39.495      36.772      33.484    
  29.828      26.029      22.293      18.779      15.597      12.815      10.468      8.5632      7.0863      6.0040    
  6.1634      5.4318      5.0349      4.9301      5.0966      5.5332      6.2512      7.2673      8.5966      10.249    
  12.228      14.535      17.161      20.084      23.250      26.563      29.882      33.037      35.860      38.154    
  39.572      39.800      38.656      36.152      32.528      28.258      23.964      20.291      17.765      16.714    
  17.255      19.315      22.662      26.917      31.596      36.190      40.271      43.586      46.100      47.980    
  49.512      50.927      52.208      53.238      53.837      53.780      52.847      50.885      47.872      43.935    
  39.340      34.416      29.485      24.803      20.540      16.788      13.591      10.956      8.8678      7.2880    
  7.3676      6.2352      5.5276      5.1752      5.1311      5.3742      5.9051      6.7364      7.8834      9.3584    
  11.168      13.319      15.811      18.638      21.763      25.108      28.545      31.902      34.995      37.613    
  39.364      39.833      38.724      35.923      31.576      26.130      20.291      14.896      10.729      8.3775    
  8.1653      10.158      14.179      19.820      26.465      33.386      39.893      45.493      49.990      53.488    
  56.308      58.836      61.283      63.533      65.335      66.359      66.255      64.741      61.693      57.203    
  51.586      45.303      38.845      32.631      26.943      21.932      17.649      14.090      11.225      9.0052    
  8.9672      7.3231      6.2197      5.5609      5.2693      5.2961      5.6220      6.2493      7.1900      8.4568    
  10.059      12.005      14.303      16.957      19.951      23.230      26.684      30.155      33.452      36.367    
  38.503      39.367      38.547      35.796      31.125      24.882      17.765      10.729      4.7805     0.77415    
 -.71134     0.59586      4.6669      11.161      19.423      28.550      37.577      45.715      52.529      58.004    
  62.463      66.388      70.205      73.985      77.420      80.052      81.356      80.857      78.252      73.524    
  66.980      59.202      50.898      42.727      35.176      28.511      22.825      18.099      14.267      11.251    
  11.036      8.7603      7.1629      6.1244      5.5372      5.3199      5.4255      5.8372      6.5581      7.5987    
  8.9690      10.679      12.740      15.164      17.953      21.076      24.452      27.941      31.360      34.506    
  37.030      38.387      38.073      35.715      31.170      24.634      16.714      8.3777     0.77422     -5.0071    
 -8.1272     -8.0713     -4.6555      1.9489      11.167      22.037      33.370      44.056      53.351      61.038    
  67.386      72.948      78.301      83.778      89.166      93.887      97.218      98.433      96.973      92.604    
  85.524      76.365      66.048      55.541      45.640      36.840      29.339      23.128      18.096      14.108    
  13.627      10.599      8.4052      6.9043      5.9622      5.4650      5.3324      5.5211      6.0178      6.8258    
  7.9540      9.4124      11.214      13.374      15.907      18.804      22.015      25.430      28.884      32.181    
  35.044      36.937      37.289      35.619      31.640      25.372      17.255      8.1651     -.71163     -8.1273    
 -13.012     -14.606     -12.485     -6.5851      2.7162      14.542      27.610      40.538      52.235      62.193    
  70.538      77.843      84.818      92.000      99.441      106.54      112.40      116.02      116.53      113.37    
  106.49      96.451      84.287      71.286      58.643      47.211      37.415      29.326      22.804      17.638    
  16.768      12.867      9.9790      7.9331      6.5708      5.7497      5.3556      5.3135      5.5865      6.1650    
  7.0531      8.2594      9.7958      11.679      13.929      16.554      19.535      22.797      26.205      29.575    
  32.691      35.106      36.214      35.458      32.428      26.970      19.316      10.158     0.59543     -8.0715    
 -14.606     -18.024     -17.662     -13.201     -4.7515      7.0324      20.942      35.455      49.170      61.229    
  71.509      80.509      89.032      97.796      107.12      116.58      125.19      131.70      134.93      133.93    
  128.27      118.26      104.88      89.644      74.160      59.750      47.213      36.819      28.468      21.884    
  20.455      15.562      11.892      9.2275      7.3823      6.1894      5.5049      5.2207      5.2716      5.6288    
  6.2871      7.2518      8.5325      10.144      12.107      14.442      17.152      20.200      23.490      26.868    
  30.141      33.007      34.890      35.189      33.399      29.218      22.663      14.180      4.6668     -4.6559    
 -12.484     -17.661     -19.300     -16.830     -10.072     0.62381      14.280      29.414      44.435      58.148    
  70.098      80.596      90.438      100.49      111.31      122.78      133.97      143.50      149.97      152.03    
  148.69      139.79      126.21      109.53      91.583      74.199      58.671      45.624      35.111      26.852    
  24.642      18.648      14.122      10.781      8.4010      6.7925      5.7865      5.2453      5.0734      5.2187    
  5.6621      6.4025      7.4462      8.8045      10.496      12.544      14.969      17.767      20.885      24.209    
  27.573      30.773      33.375      34.769      34.396      31.837      26.917      19.820      11.162      1.9484    
 -6.5851     -13.201     -16.830     -16.665     -12.241     -3.5720      8.6974      23.301      38.639      53.275    
  66.405      78.042      88.855      99.775      111.55      124.39      137.61      149.85      159.60      165.26    
  165.23      158.71      146.12      129.05      109.57      89.733      71.349      55.532      42.638      32.486    
  29.219      22.043      16.610      12.556      9.6103      7.5545      6.2002      5.3859      4.9881      4.9294    
  5.1733      5.7094      6.5392      7.6701      9.1159      10.900      13.050      15.587      18.499      21.721    
  25.128      28.553      31.744      34.175      35.262      34.509      31.595      26.465      19.423      11.167    
  2.7155     -4.7513     -10.072     -12.241     -10.523     -4.5972      5.2779      18.180      32.684      47.279    
  60.875      73.135      84.476      95.768      107.89      121.30      135.71      149.89      162.39      171.49    
  175.28      172.25      162.10      146.00      126.17      104.92      84.322      66.002      50.748      38.614    
  33.981      25.612      19.261      14.489      10.969      8.4532      6.7353      5.6357      5.0084      4.7518    
  4.8098      5.1606      5.8000      6.7310      7.9627      9.5143      11.416      13.704      16.400      19.488    
  22.895      26.491      30.106      33.416      35.872      36.938      36.189      33.385      28.550      22.037    
  14.541      7.0322     0.62407     -3.5725     -4.5983     -1.8119      4.9232      15.104      27.631      41.102    
  54.277      66.499      77.854      89.012      100.86      114.06      128.66      143.79      158.02      169.79    
  177.11      178.03      171.50      157.95      139.24      117.93      96.228      76.123      58.879      44.902    
  38.611      29.152      21.937      16.481      12.411      9.4470      7.3672      5.9798      5.1226      4.6739    
  4.5582      4.7405      5.2101      5.9664      7.0145      8.3690      10.059      12.126      14.617      17.559    
  20.931      24.653      28.589      32.559      36.177      38.909      40.271      39.892      37.578      33.371    
  27.610      20.942      14.280      8.6978      5.2770      4.9219      8.1457      14.891      24.480      35.783    
  47.585      59.012      69.811      80.357      91.402      103.69      117.56      132.53      147.39      160.64    
  170.55      175.07      172.61      162.79      146.79      126.89      105.51      84.726      66.235      50.844    
  42.698      32.397      24.460      18.410      13.849      10.476      8.0571      6.3932      5.3130      4.6803    
  4.4030      4.4323      4.7498      5.3520      6.2420      7.4311      8.9449      10.828      13.141      15.942    
  19.259      23.065      27.267      31.720      36.219      40.344      43.586      45.493      45.715      44.057    
  40.538      35.455      29.414      23.303      18.181      15.103      14.890      17.905      23.933      32.233    
  41.782      51.642      61.296      70.789      80.628      91.502      103.91      117.74      132.14      145.72    
  156.98      164.10      165.31      159.64      147.46      130.42      110.76      90.620      71.910      55.808    
  45.787      35.039      26.624      20.132      15.181      11.468      8.7540      6.8412      5.5552      4.7519    
  4.3267      4.2181      4.3998      4.8651      5.6168      6.6650      8.0339      9.7686      11.936      14.615    
  17.869      21.723      26.135      30.993      36.130      41.314      46.100      49.990      52.528      53.351    
  52.235      49.169      44.435      38.640      32.685      27.632      24.480      23.933      26.216      31.025    
  37.654      45.268      53.217      61.261      69.615      78.786      89.296      101.29      114.26      127.20    
  138.68      147.18      151.11      149.20      141.16      127.90      111.15      92.893      75.091      59.161    
  47.480      36.780      28.217      21.498      16.300      12.342      9.3998      7.2819      5.8189      4.8651    
  4.3087      4.0787      4.1409      4.4851      5.1140      6.0389      7.2850      8.8985      10.950      13.530    
  16.726      20.604      25.171      30.364      36.042      42.006      47.980      53.488      58.004      61.038    
  62.193      61.229      58.147      53.275      47.279      41.102      35.783      32.234      31.025      32.269    
  35.636      40.523      46.301      52.558      59.235      66.599      75.065      84.874      95.813      107.23    
  118.06      126.93      132.44      133.38      129.08      119.79      106.61      91.167      75.278      60.417    
  47.533      37.398      29.059      22.371      17.102      13.022      9.9360      7.6711      6.0704      4.9933    
  4.3263      3.9930      3.9527      4.1914      4.7114      5.5262      6.6638      8.1735      10.130      12.629    
  15.776      19.664      24.344      29.805      35.955      42.610      49.512      56.308      62.463      67.386    