   9   9   0   0
  0.1255842E+02  0.4913800E-09  0.4913800E-09  0.5405200E-09  0.5000000E-15
  1.000000000000000E-004
  CAR 
 unknown system                          
     14.51694755    -20.37278839  301      1.17162355      1.00000000
    -20.373  0.0000E+00  0.0000E+00
    -20.256  0.0000E+00  0.0000E+00
    -20.140  0.0000E+00  0.0000E+00
    -20.024  0.0000E+00  0.0000E+00
    -19.908  0.0000E+00  0.0000E+00
    -19.791  0.0000E+00  0.0000E+00
    -19.675  0.0000E+00  0.0000E+00
    -19.559  0.0000E+00  0.0000E+00
    -19.442  0.0000E+00  0.0000E+00
    -19.326  0.0000E+00  0.0000E+00
    -19.210  0.0000E+00  0.0000E+00
    -19.093  0.0000E+00  0.0000E+00
    -18.977  0.0000E+00  0.0000E+00
    -18.861  0.0000E+00  0.0000E+00
    -18.745  0.0000E+00  0.0000E+00
    -18.628  0.0000E+00  0.0000E+00
    -18.512  0.0000E+00  0.0000E+00
    -18.396  0.0000E+00  0.0000E+00
    -18.279  0.1013E+01  0.3498E-01
    -18.163  0.1721E+01  0.1915E+00
    -18.047  0.3067E+01  0.4523E+00
    -17.931  0.4902E+01  0.9268E+00
    -17.814  0.7015E+01  0.1813E+01
    -17.698  0.8242E+00  0.2004E+01
    -17.582  0.1641E+01  0.2149E+01
    -17.465  0.3623E+01  0.2426E+01
    -17.349  0.6118E+01  0.3391E+01
    -17.233  0.1816E+01  0.3766E+01
    -17.116  0.8084E+00  0.3909E+01
    -17.000  0.6711E+00  0.3982E+01
    -16.884  0.5689E+01  0.4162E+01
    -16.768  0.6062E+01  0.5119E+01
    -16.651  0.2446E+01  0.5542E+01
    -16.535  0.1423E+01  0.5762E+01
    -16.419  0.9265E+00  0.5901E+01
    -16.302  0.4458E+00  0.5984E+01
    -16.186  0.7956E+02  0.9902E+01
    -16.070  0.0000E+00  0.1200E+02
    -15.953  0.0000E+00  0.1200E+02
    -15.837  0.0000E+00  0.1200E+02
    -15.721  0.0000E+00  0.1200E+02
    -15.605  0.0000E+00  0.1200E+02
    -15.488  0.0000E+00  0.1200E+02
    -15.372  0.0000E+00  0.1200E+02
    -15.256  0.0000E+00  0.1200E+02
    -15.139  0.0000E+00  0.1200E+02
    -15.023  0.0000E+00  0.1200E+02
    -14.907  0.0000E+00  0.1200E+02
    -14.790  0.0000E+00  0.1200E+02
    -14.674  0.0000E+00  0.1200E+02
    -14.558  0.0000E+00  0.1200E+02
    -14.442  0.0000E+00  0.1200E+02
    -14.325  0.0000E+00  0.1200E+02
    -14.209  0.0000E+00  0.1200E+02
    -14.093  0.0000E+00  0.1200E+02
    -13.976  0.0000E+00  0.1200E+02
    -13.860  0.0000E+00  0.1200E+02
    -13.744  0.0000E+00  0.1200E+02
    -13.627  0.0000E+00  0.1200E+02
    -13.511  0.0000E+00  0.1200E+02
    -13.395  0.0000E+00  0.1200E+02
    -13.279  0.0000E+00  0.1200E+02
    -13.162  0.0000E+00  0.1200E+02
    -13.046  0.0000E+00  0.1200E+02
    -12.930  0.0000E+00  0.1200E+02
    -12.813  0.0000E+00  0.1200E+02
    -12.697  0.0000E+00  0.1200E+02
    -12.581  0.0000E+00  0.1200E+02
    -12.464  0.0000E+00  0.1200E+02
    -12.348  0.0000E+00  0.1200E+02
    -12.232  0.0000E+00  0.1200E+02
    -12.116  0.0000E+00  0.1200E+02
    -11.999  0.0000E+00  0.1200E+02
    -11.883  0.0000E+00  0.1200E+02
    -11.767  0.0000E+00  0.1200E+02
    -11.650  0.0000E+00  0.1200E+02
    -11.534  0.0000E+00  0.1200E+02
    -11.418  0.0000E+00  0.1200E+02
    -11.301  0.0000E+00  0.1200E+02
    -11.185  0.0000E+00  0.1200E+02
    -11.069  0.0000E+00  0.1200E+02
    -10.953  0.0000E+00  0.1200E+02
    -10.836  0.0000E+00  0.1200E+02
    -10.720  0.0000E+00  0.1200E+02
    -10.604  0.0000E+00  0.1200E+02
    -10.487  0.0000E+00  0.1200E+02
    -10.371  0.0000E+00  0.1200E+02
    -10.255  0.0000E+00  0.1200E+02
    -10.138  0.0000E+00  0.1200E+02
    -10.022  0.0000E+00  0.1200E+02
     -9.906  0.0000E+00  0.1200E+02
     -9.790  0.0000E+00  0.1200E+02
     -9.673  0.0000E+00  0.1200E+02
     -9.557  0.0000E+00  0.1200E+02
     -9.441  0.0000E+00  0.1200E+02
     -9.324  0.0000E+00  0.1200E+02
     -9.208  0.0000E+00  0.1200E+02
     -9.092  0.0000E+00  0.1200E+02
     -8.975  0.0000E+00  0.1200E+02
     -8.859  0.0000E+00  0.1200E+02
     -8.743  0.0000E+00  0.1200E+02
     -8.627  0.0000E+00  0.1200E+02
     -8.510  0.0000E+00  0.1200E+02
     -8.394  0.0000E+00  0.1200E+02
     -8.278  0.0000E+00  0.1200E+02
     -8.161  0.1307E+00  0.1200E+02
     -8.045  0.4632E+00  0.1204E+02
     -7.929  0.5471E+00  0.1209E+02
     -7.812  0.7672E+00  0.1217E+02
     -7.696  0.9683E+00  0.1227E+02
     -7.580  0.1388E+01  0.1241E+02
     -7.464  0.1992E+01  0.1260E+02
     -7.347  0.5823E+01  0.1296E+02
     -7.231  0.3031E+01  0.1372E+02
     -7.115  0.7011E+00  0.1393E+02
     -6.998  0.3673E+00  0.1399E+02
     -6.882  0.2120E+00  0.1402E+02
     -6.766  0.3172E+00  0.1405E+02
     -6.649  0.4767E+00  0.1410E+02
     -6.533  0.7843E+00  0.1417E+02
     -6.417  0.1323E+01  0.1429E+02
     -6.301  0.2806E+01  0.1450E+02
     -6.184  0.6644E+01  0.1505E+02
     -6.068  0.2451E+01  0.1549E+02
     -5.952  0.1359E+01  0.1571E+02
     -5.835  0.8910E+00  0.1583E+02
     -5.719  0.5962E+00  0.1592E+02
     -5.603  0.5009E+00  0.1598E+02
     -5.487  0.2001E+00  0.1601E+02
     -5.370  0.2219E+01  0.1615E+02
     -5.254  0.3566E+01  0.1651E+02
     -5.138  0.2897E+01  0.1687E+02
     -5.021  0.2766E+01  0.1720E+02
     -4.905  0.1968E+01  0.1748E+02
     -4.789  0.1407E+01  0.1767E+02
     -4.672  0.1030E+01  0.1781E+02
     -4.556  0.6865E+00  0.1791E+02
     -4.440  0.1822E+01  0.1803E+02
     -4.324  0.1890E+02  0.1920E+02
     -4.207  0.8032E+01  0.2045E+02
     -4.091  0.6925E+01  0.2118E+02
     -3.975  0.4341E+01  0.2185E+02
     -3.858  0.6975E+01  0.2239E+02
     -3.742  0.6233E+01  0.2329E+02
     -3.626  0.2787E+01  0.2381E+02
     -3.509  0.2647E+00  0.2400E+02
     -3.393  0.0000E+00  0.2400E+02
     -3.277  0.0000E+00  0.2400E+02
     -3.161  0.0000E+00  0.2400E+02
     -3.044  0.0000E+00  0.2400E+02
     -2.928  0.0000E+00  0.2400E+02
     -2.812  0.0000E+00  0.2400E+02
     -2.695  0.0000E+00  0.2400E+02
     -2.579  0.0000E+00  0.2400E+02
     -2.463  0.0000E+00  0.2400E+02
     -2.346  0.0000E+00  0.2400E+02
     -2.230  0.0000E+00  0.2400E+02
     -2.114  0.1094E+02  0.2435E+02
     -1.998  0.8143E+01  0.2575E+02
     -1.881  0.5385E+01  0.2643E+02
     -1.765  0.7159E+01  0.2728E+02
     -1.649  0.7801E+01  0.2804E+02
     -1.532  0.1053E+02  0.2885E+02
     -1.416  0.5118E+01  0.2975E+02
     -1.300  0.1211E+01  0.3003E+02
     -1.183  0.1536E+02  0.3086E+02
     -1.067  0.2640E+01  0.3184E+02
     -0.951  0.1502E+02  0.3246E+02
     -0.835  0.1244E+01  0.3386E+02
     -0.718  0.3478E+01  0.3412E+02
     -0.602  0.6442E+01  0.3482E+02
     -0.486  0.1077E+02  0.3591E+02
     -0.369  0.7986E+01  0.3721E+02
     -0.253  0.4732E+01  0.3782E+02
     -0.137  0.1212E+02  0.3871E+02
     -0.020  0.6439E+01  0.3989E+02
      0.096  0.1147E+02  0.4065E+02
      0.212  0.0000E+00  0.4200E+02
      0.328  0.9140E+01  0.4231E+02
      0.445  0.4943E+01  0.4357E+02
      0.561  0.4248E+01  0.4408E+02
      0.677  0.6570E+01  0.4466E+02
      0.794  0.1002E+02  0.4568E+02
      0.910  0.6810E+01  0.4648E+02
      1.026  0.1194E+02  0.4769E+02
      1.143  0.0000E+00  0.4800E+02
      1.259  0.0000E+00  0.4800E+02
      1.375  0.0000E+00  0.4800E+02
      1.491  0.0000E+00  0.4800E+02
      1.608  0.0000E+00  0.4800E+02
      1.724  0.0000E+00  0.4800E+02
      1.840  0.0000E+00  0.4800E+02
      1.957  0.0000E+00  0.4800E+02
      2.073  0.0000E+00  0.4800E+02
      2.189  0.0000E+00  0.4800E+02
      2.306  0.0000E+00  0.4800E+02
      2.422  0.0000E+00  0.4800E+02
      2.538  0.0000E+00  0.4800E+02
      2.654  0.0000E+00  0.4800E+02
      2.771  0.0000E+00  0.4800E+02
      2.887  0.0000E+00  0.4800E+02
      3.003  0.0000E+00  0.4800E+02
      3.120  0.0000E+00  0.4800E+02
      3.236  0.0000E+00  0.4800E+02
      3.352  0.0000E+00  0.4800E+02
      3.469  0.0000E+00  0.4800E+02
      3.585  0.0000E+00  0.4800E+02
      3.701  0.0000E+00  0.4800E+02
      3.817  0.0000E+00  0.4800E+02
      3.934  0.0000E+00  0.4800E+02
      4.050  0.0000E+00  0.4800E+02
      4.166  0.0000E+00  0.4800E+02
      4.283  0.0000E+00  0.4800E+02
      4.399  0.0000E+00  0.4800E+02
      4.515  0.0000E+00  0.4800E+02
      4.632  0.0000E+00  0.4800E+02
      4.748  0.0000E+00  0.4800E+02
      4.864  0.0000E+00  0.4800E+02
      4.980  0.0000E+00  0.4800E+02
      5.097  0.0000E+00  0.4800E+02
      5.213  0.0000E+00  0.4800E+02
      5.329  0.0000E+00  0.4800E+02
      5.446  0.0000E+00  0.4800E+02
      5.562  0.0000E+00  0.4800E+02
      5.678  0.0000E+00  0.4800E+02
      5.795  0.0000E+00  0.4800E+02
      5.911  0.0000E+00  0.4800E+02
      6.027  0.0000E+00  0.4800E+02
      6.143  0.0000E+00  0.4800E+02
      6.260  0.0000E+00  0.4800E+02
      6.376  0.0000E+00  0.4800E+02
      6.492  0.0000E+00  0.4800E+02
      6.609  0.0000E+00  0.4800E+02
      6.725  0.0000E+00  0.4800E+02
      6.841  0.0000E+00  0.4800E+02
      6.958  0.0000E+00  0.4800E+02
      7.074  0.0000E+00  0.4800E+02
      7.190  0.4856E-02  0.4800E+02
      7.306  0.3468E-01  0.4800E+02
      7.423  0.9167E-01  0.4801E+02
      7.539  0.1815E+00  0.4802E+02
      7.655  0.2379E+00  0.4805E+02
      7.772  0.2730E+00  0.4808E+02
      7.888  0.2906E+00  0.4811E+02
      8.004  0.3362E+00  0.4815E+02
      8.120  0.3845E+00  0.4819E+02
      8.237  0.4355E+00  0.4824E+02
      8.353  0.4890E+00  0.4829E+02
      8.469  0.5446E+00  0.4835E+02
      8.586  0.6800E+00  0.4842E+02
      8.702  0.8346E+00  0.4851E+02
      8.818  0.8223E+00  0.4861E+02
      8.935  0.8839E+00  0.4871E+02
      9.051  0.9476E+00  0.4881E+02
      9.167  0.1013E+01  0.4893E+02
      9.283  0.1198E+01  0.4905E+02
      9.400  0.1526E+01  0.4922E+02
      9.516  0.1320E+01  0.4939E+02
      9.632  0.1234E+01  0.4953E+02
      9.749  0.1450E+01  0.4969E+02
      9.865  0.1503E+01  0.4986E+02
      9.981  0.1492E+01  0.5008E+02
     10.098  0.1088E+01  0.5022E+02
     10.214  0.2487E+01  0.5040E+02
     10.330  0.7957E+01  0.5093E+02
     10.446  0.4368E+01  0.5199E+02
     10.563  0.5221E+01  0.5247E+02
     10.679  0.8358E+01  0.5332E+02
     10.795  0.5153E+01  0.5414E+02
     10.912  0.2389E+01  0.5453E+02
     11.028  0.4896E+01  0.5493E+02
     11.144  0.6581E+01  0.5575E+02
     11.261  0.5789E+01  0.5625E+02
     11.377  0.6757E+01  0.5698E+02
     11.493  0.5144E+01  0.5777E+02
     11.609  0.1116E+01  0.5809E+02
     11.726  0.1131E+02  0.5909E+02
     11.842  0.1628E+01  0.5969E+02
     11.958  0.7531E+00  0.5982E+02
     12.075  0.5275E+00  0.5989E+02
     12.191  0.3782E+00  0.5994E+02
     12.307  0.2454E+00  0.5998E+02
     12.424  0.7092E-01  0.6000E+02
     12.540  0.0000E+00  0.6000E+02
     12.656  0.0000E+00  0.6000E+02
     12.772  0.0000E+00  0.6000E+02
     12.889  0.0000E+00  0.6000E+02
     13.005  0.0000E+00  0.6000E+02
     13.121  0.0000E+00  0.6000E+02
     13.238  0.0000E+00  0.6000E+02
     13.354  0.0000E+00  0.6000E+02
     13.470  0.0000E+00  0.6000E+02
     13.587  0.0000E+00  0.6000E+02
     13.703  0.0000E+00  0.6000E+02
     13.819  0.0000E+00  0.6000E+02
     13.935  0.0000E+00  0.6000E+02
     14.052  0.0000E+00  0.6000E+02
     14.168  0.0000E+00  0.6000E+02
     14.284  0.0000E+00  0.6000E+02
     14.401  0.0000E+00  0.6000E+02
     14.517  0.0000E+00  0.6000E+02
