Automatically generated mesh
      27
Reciprocal lattice
    0.00000000000000    0.00000000000000    0.00000000000000             1
    0.16666666666667    0.00000000000000    0.00000000000000             6
    0.33333333333333    0.00000000000000    0.00000000000000             6
    0.50000000000000    0.00000000000000    0.00000000000000             3
    0.16666666666667    0.16666666666667    0.00000000000000             6
    0.33333333333333    0.16666666666667    0.00000000000000            12
    0.33333333333333    0.33333333333333    0.00000000000000             2
    0.00000000000000    0.00000000000000    0.20000000000000             2
    0.16666666666667    0.00000000000000    0.20000000000000             6
    0.33333333333333    0.00000000000000    0.20000000000000             6
    0.50000000000000    0.00000000000000    0.20000000000000             6
   -0.33333333333333    0.00000000000000    0.20000000000000             6
   -0.16666666666667    0.00000000000000    0.20000000000000             6
    0.16666666666667    0.16666666666667    0.20000000000000            12
    0.33333333333333    0.16666666666667    0.20000000000000            12
    0.50000000000000    0.16666666666667    0.20000000000000            12
    0.33333333333333    0.33333333333333    0.20000000000000             4
    0.00000000000000    0.00000000000000    0.40000000000000             2
    0.16666666666667    0.00000000000000    0.40000000000000             6
    0.33333333333333    0.00000000000000    0.40000000000000             6
    0.50000000000000    0.00000000000000    0.40000000000000             6
   -0.33333333333333    0.00000000000000    0.40000000000000             6
   -0.16666666666667    0.00000000000000    0.40000000000000             6
    0.16666666666667    0.16666666666667    0.40000000000000            12
    0.33333333333333    0.16666666666667    0.40000000000000            12
    0.50000000000000    0.16666666666667    0.40000000000000            12
    0.33333333333333    0.33333333333333    0.40000000000000             4
Tetrahedra
       231    0.00092592592593
         4         2         2         5        13
         4         1         2         2        13
         4         1         2         8        13
         4         2         5        13        14
         8         2         9        13        14
         8         2         8         9        13
         8         3         5         6        14
         8         2         3         5        14
         4         2         3         9        14
         4         3         6        14        15
         4         3        10        14        15
         4         3         9        10        14
         4         4         6         6        15
         4         3         4         6        15
         4         3         4        10        15
         4         4         6        15        16
         4         4        11        15        16
         4         4        10        11        15
         4         3         5         6        16
         4         3         4         6        16
         4         3         4        11        16
         4         3         5        14        16
         4         3        12        14        16
         4         3        11        12        16
         4         2         2         5        14
         4         2         3        12        14
         4         2         2         9        14
         4         2        12        13        14
         4         1         2         2         9
         4         1         2         9        13
         4         1         8         9        13
         4         3         5         6        12
         4         2         3         5        12
         4         2         5        12        13
         4         5         6        12        16
         4         5        12        14        16
         4         5        12        13        14
         8         6         6         7        16
         4         5         6         6        16
         4         5         6        14        16
         8         6         7        16        17
        16         6        15        16        17
         8         6        14        15        16
         8         6         6         7        17
         8         6         6        15        17
         4         3         5         6        15
         4         5         6         6        15
         4         5         6        15        16
         4         3         5        10        15
         4         5        10        14        15
         4         5        14        15        16
         4         2         3         5        10
         4         2         5        10        14
         4         2         9        10        14
         4         4         6         6        11
         8         3         4         6        11
         4         3         6        11        12
         4         6         6        11        15
         8         6        11        15        16
         4         6        11        12        16
         8         6         6         7        15
         8         6         7        15        16
         8         7        15        16        17
         4         4         6         6        16
         4         4         6        11        16
         4         3         6        11        15
         4         3        10        11        15
         4         3         5         6        10
         4         3         4         6        10
         4         4         6        10        11
         4         5         6        10        14
         4         6        10        14        15
         4         6        10        11        15
         4         5         6         6        14
         4         6         6        14        15
         4         3         6        12        14
         4         6        12        14        16
         4         3         4         6        12
         4         4         6        12        16
         4         4        11        12        16
         4         2         2         5         9
         4         2         3         5         9
         4         3         5         9        10
         4         2         5         9        13
         4         5         9        13        14
         4         5         9        10        14
         4         2         3         5        13
         4         3         5        13        14
         4         3        12        13        14
         4         1         2         2         8
         4         2         2         8         9
         4         9        13        14        23
         4         8         9        13        23
         4         8         9        18        23
         4         9        14        23        24
         4         9        19        23        24
         4         9        18        19        23
         4        10        14        15        24
         4         9        10        14        24
         4         9        10        19        24
         4        10        15        24        25
         4        10        20        24        25
         4        10        19        20        24
         4        11        15        16        25
         4        10        11        15        25
         4        10        11        20        25
         4        11        16        25        26
         4        11        21        25        26
         4        11        20        21        25
         4        12        14        16        26
         4        11        12        16        26
         4        11        12        21        26
         4        12        14        24        26
         4        12        22        24        26
         4        12        21        22        26
         4         9        13        14        24
         4        12        13        14        24
         4        12        13        22        24
         4         9        13        19        24
         4        13        19        23        24
         4        13        22        23        24
         4         8         9        13        19
         4         8        13        19        23
         4         8        18        19        23
         4        12        14        16        22
         4        12        13        14        22
         4        13        14        22        23
         4        14        16        22        26
         4        14        22        24        26
         4        14        22        23        24
         8        15        16        17        26
         4        14        15        16        26
         4        14        15        24        26
         8        15        17        26        27
         8        15        25        26        27
         4        15        24        25        26
         8        15        16        17        27
         8        15        16        25        27
         8        16        25        26        27
         4        10        14        15        25
         4        14        15        16        25
         4        14        16        25        26
         4        10        14        20        25
         4        14        20        24        25
         4        14        24        25        26
         4         9        10        14        20
         4         9        14        20        24
         4         9        19        20        24
         4        11        15        16        21
         4        11        12        16        21
         4        12        16        21        22
         4        15        16        21        25
         4        16        21        25        26
         4        16        21        22        26
         8        15        16        17        25
         8        16        17        25        26
         8        17        25        26        27
         4        11        15        16        26
         4        11        15        21        26
         4        15        21        25        26
         4        10        11        15        21
         4        10        15        21        25
         4        10        20        21        25
         4        10        14        15        20
         4        10        11        15        20
         4        11        15        20        21
         4        14        15        20        24
         4        15        20        24        25
         4        15        20        21        25
         4        12        14        16        24
         4        14        15        16        24
         4        15        16        24        25
         4        12        16        22        24
         4        16        22        24        26
         4        16        24        25        26
         4        11        12        16        22
         4        11        16        22        26
         4        11        21        22        26
         4         9        13        14        19
         4         9        10        14        19
         4        10        14        19        20
         4        13        14        19        23
         4        14        19        23        24
         4        14        19        20        24
         4        12        13        14        23
         4        12        14        23        24
         4        12        22        23        24
         4         8         9        13        18
         4         9        13        18        19
         4        13        18        19        23
         4        19        19        23        24
         4        18        19        19        23
         2        18        18        19        19
         2        19        19        24        24
         4        20        24        24        25
         4        19        20        24        24
         8        19        20        23        24
         8        20        24        25        26
         8        20        22        24        26
         8        20        22        23        24
         8        21        25        26        26
         8        20        21        25        26
         8        20        21        22        26
         4        21        21        25        26
         4        21        21        22        26
         4        22        24        25        26
         4        21        22        25        26
         4        21        21        22        25
         4        22        24        24        25
         4        20        22        24        25
         4        20        21        22        25
         4        19        23        24        24
         4        22        23        24        24
         8        19        23        23        24
         8        18        19        23        23
         4        18        18        19        23
         8        25        25        26        27
         4        24        25        25        26
         2        24        24        25        25
         4        25        25        27        27
         8        25        26        27        27
        16        25        26        26        27
         8        24        25        26        26
         4        22        24        24        26
         4        24        24        25        26
         4        19        20        22        24
         4        19        22        24        24
         4        19        22        23        24
         4        21        25        25        26
         2        21        21        25        25
         4        20        21        21        25
