 vasp.5.4.4.18Apr17-6-g9f103f2a35 (build Jul 15 2019 14:02:39) complex          
  
 executed on                 TEST date 2024.09.18  14:38:08
 running on    4 total cores
 distrk:  each k-point on    4 cores,    1 groups
 distr:  one band on NCORES_PER_BAND=   2 cores,    2 groups


--------------------------------------------------------------------------------------------------------


 INCAR:
 POTCAR:   PAW_PBE Si 05Jan2001                   
 POTCAR:   PAW_PBE O 08Apr2002                    
 POTCAR:   PAW_PBE Si 05Jan2001                   
   VRHFIN =Si: s2p2                                                             
   LEXCH  = PE                                                                  
   EATOM  =   103.0669 eV,    7.5752 Ry                                         
                                                                                
   TITEL  = PAW_PBE Si 05Jan2001                                                
   LULTRA =        F    use ultrasoft PP ?                                      
   IUNSCR =        1    unscreen: 0-lin 1-nonlin 2-no                           
   RPACOR =    1.500    partial core radius                                     
   POMASS =   28.085; ZVAL   =    4.000    mass and valenz                      
   RCORE  =    1.900    outmost cutoff radius                                   
   RWIGS  =    2.480; RWIGS  =    1.312    wigner-seitz radius (au A)           
   ENMAX  =  245.345; ENMIN  =  184.009 eV                                      
   ICORE  =        2    local potential                                         
   LCOR   =        T    correct aug charges                                     
   LPAW   =        T    paw PP                                                  
   EAUG   =  322.069                                                            
   DEXC   =    -.007                                                            
   RMAX   =    2.944    core radius for proj-oper                               
   RAUG   =    1.300    factor for augmentation sphere                          
   RDEP   =    1.993    radius for radial grids                                 
   QCUT   =   -4.246; QGAM   =    8.493    optimization parameters              
                                                                                
   Description                                                                  
     l     E      TYP  RCUT    TYP  RCUT                                        
     0   .000     23  1.900                                                     
     0   .000     23  1.900                                                     
     1   .000     23  1.900                                                     
     1   .000     23  1.900                                                     
     2   .000      7  1.900                                                     
  local pseudopotential read in
  partial core-charges read in
  atomic valenz-charges read in
  non local Contribution for L=           0  read in
    real space projection operators read in
  non local Contribution for L=           0  read in
    real space projection operators read in
  non local Contribution for L=           1  read in
    real space projection operators read in
  non local Contribution for L=           1  read in
    real space projection operators read in
    PAW grid and wavefunctions read in
 
   number of l-projection  operators is LMAX  =           4
   number of lm-projection operators is LMMAX =           8
 
 POTCAR:   PAW_PBE O 08Apr2002                    
   VRHFIN =O: s2p4                                                              
   LEXCH  = PE                                                                  
   EATOM  =   432.3788 eV,   31.7789 Ry                                         
                                                                                
   TITEL  = PAW_PBE O 08Apr2002                                                 
   LULTRA =        F    use ultrasoft PP ?                                      
   IUNSCR =        0    unscreen: 0-lin 1-nonlin 2-no                           
   RPACOR =     .000    partial core radius                                     
   POMASS =   16.000; ZVAL   =    6.000    mass and valenz                      
   RCORE  =    1.520    outmost cutoff radius                                   
   RWIGS  =    1.550; RWIGS  =     .820    wigner-seitz radius (au A)           
   ENMAX  =  400.000; ENMIN  =  300.000 eV                                      
   ICORE  =        2    local potential                                         
   LCOR   =        T    correct aug charges                                     
   LPAW   =        T    paw PP                                                  
   EAUG   =  605.392                                                            
   DEXC   =     .000                                                            
   RMAX   =    2.264    core radius for proj-oper                               
   RAUG   =    1.300    factor for augmentation sphere                          
   RDEP   =    1.550    radius for radial grids                                 
   QCUT   =   -5.520; QGAM   =   11.041    optimization parameters              
                                                                                
   Description                                                                  
     l     E      TYP  RCUT    TYP  RCUT                                        
     0   .000     23  1.200                                                     
     0  -.700     23  1.200                                                     
     1   .000     23  1.520                                                     
     1   .600     23  1.520                                                     
     2   .000      7  1.500                                                     
  local pseudopotential read in
  atomic valenz-charges read in
  non local Contribution for L=           0  read in
    real space projection operators read in
  non local Contribution for L=           0  read in
    real space projection operators read in
  non local Contribution for L=           1  read in
    real space projection operators read in
  non local Contribution for L=           1  read in
    real space projection operators read in
    PAW grid and wavefunctions read in
 
   number of l-projection  operators is LMAX  =           4
   number of lm-projection operators is LMMAX =           8
 
 Optimization of the real space projectors (new method)

 maximal supplied QI-value         = 19.84
 optimisation between [QCUT,QGAM] = [ 12.50, 25.00] = [ 43.76,175.03] Ry 
 Optimized for a Real-space Cutoff    1.06 Angstroem

   l    n(q)    QCUT    max X(q) W(low)/X(q) W(high)/X(q)  e(spline) 
   0      8    12.501     8.708    0.92E-05    0.20E-04    0.67E-08
   0      8    12.501   106.241    0.25E-03    0.85E-04    0.84E-07
   1      7    12.501     5.901    0.73E-04    0.35E-04    0.14E-07
   1      7    12.501    73.241    0.31E-03    0.51E-03    0.85E-07
 Optimization of the real space projectors (new method)

 maximal supplied QI-value         = 24.76
 optimisation between [QCUT,QGAM] = [ 12.38, 25.00] = [ 42.90,175.06] Ry 
 Optimized for a Real-space Cutoff    1.06 Angstroem

   l    n(q)    QCUT    max X(q) W(low)/X(q) W(high)/X(q)  e(spline) 
   0      8    12.378     4.192    0.24E-04    0.14E-04    0.38E-07
   0      8    12.378     8.473    0.28E-03    0.14E-03    0.22E-06
   1      7    12.378     2.474    0.86E-04    0.10E-04    0.31E-07
   1      7    12.378     3.912    0.50E-03    0.11E-03    0.22E-06
 PAW_PBE Si 05Jan2001                   :
 energy of atom  1       EATOM= -103.0669
 kinetic energy error for atom=    0.0003 (will be added to EATOM!!)
 PAW_PBE O 08Apr2002                    :
 energy of atom  2       EATOM= -432.3788
 kinetic energy error for atom=    0.0168 (will be added to EATOM!!)
 
 
 POSCAR:  SiO2                                   
  positions in direct lattice
  No initial velocities read in
 exchange correlation table for  LEXCH =        8
   RHO(1)=    0.500       N(1)  =     2000
   RHO(2)=  100.500       N(2)  =     4000
 


--------------------------------------------------------------------------------------------------------


 ion  position               nearest neighbor table
   1  0.470  0.000  0.667-   6 1.60   4 1.60   9 1.62   5 1.62   3 3.06   3 3.06   2 3.06   2 3.06

   2  0.530  0.530  0.000-   8 1.60   5 1.60   7 1.62   4 1.62   1 3.06   3 3.06   3 3.06   1 3.06

   3  0.000  0.470  0.333-   9 1.60   7 1.60   6 1.62   8 1.62   1 3.06   1 3.06   2 3.06   2 3.06

   4  0.414  0.266  0.786-   1 1.60   2 1.62
   5  0.586  0.852  0.881-   2 1.60   1 1.62
   6  0.148  0.734  0.548-   1 1.60   3 1.62
   7  0.266  0.414  0.214-   3 1.60   2 1.62
   8  0.852  0.586  0.119-   2 1.60   3 1.62
   9  0.734  0.148  0.452-   3 1.60   1 1.62
 
  LATTYP: Found a hexagonal cell.
 ALAT       =     4.9138000000
 C/A-ratio  =     1.1000040702
  
  Lattice vectors:
  
 A1 = (   4.9138000000,   0.0000000000,   0.0000000000)
 A2 = (  -2.4569000000,   4.2554756291,   0.0000000000)
 A3 = (   0.0000000000,   0.0000000000,   5.4052000000)


Analysis of symmetry for initial positions (statically):
=====================================================================
 Subroutine PRICEL returns:
 Original cell was already a primitive cell.
 

 Routine SETGRP: Setting up the symmetry group for a 
 hexagonal supercell.


 Subroutine GETGRP returns: Found  6 space group operations
 (whereof  2 operations were pure point group operations)
 out of a pool of 24 trial point group operations.


The static configuration has the point symmetry C_2 .
 The point group associated with its full space group is D_3 .


Analysis of symmetry for dynamics (positions and initial velocities):
=====================================================================
 Subroutine PRICEL returns:
 Original cell was already a primitive cell.
 

 Routine SETGRP: Setting up the symmetry group for a 
 hexagonal supercell.


 Subroutine GETGRP returns: Found  6 space group operations
 (whereof  2 operations were pure point group operations)
 out of a pool of 24 trial point group operations.


The dynamic configuration has the point symmetry C_2 .
 The point group associated with its full space group is D_3 .


 Subroutine INISYM returns: Found  6 space group operations
 (whereof  2 operations are pure point group operations),
 and found     1 'primitive' translations

 
 
 KPOINTS: k-density: 4.0                          

Automatic generation of k-mesh.
Space group operators:
 irot       det(A)        alpha          n_x          n_y          n_z        tau_x        tau_y        tau_z
    1     1.000000     0.000000     1.000000     0.000000     0.000000     0.000000     0.000000     0.000000
    2     1.000000   180.000000    -0.500000    -0.866025     0.000000     0.000000     0.000000     0.000000
    3     1.000000   120.000000     0.000000     0.000000    -1.000000     0.000000     0.000000     0.666667
    4     1.000000   120.000000     0.000000     0.000000     1.000000     0.000000     0.000000     0.333333
    5     1.000000   180.000000     1.000000    -0.000000     0.000000     0.000000     0.000000     0.333333
    6     1.000000   180.000000     0.500000    -0.866025     0.000000     0.000000     0.000000     0.666667
 
 Subroutine IBZKPT returns following result:
 ===========================================
 
 Found     27 irreducible k-points:
 
 Following reciprocal coordinates:
            Coordinates               Weight
  0.000000  0.000000  0.000000      1.000000
  0.166667  0.000000  0.000000      6.000000
  0.333333  0.000000  0.000000      6.000000
  0.500000  0.000000  0.000000      3.000000
  0.166667  0.166667  0.000000      6.000000
  0.333333  0.166667  0.000000     12.000000
  0.333333  0.333333  0.000000      2.000000
  0.000000  0.000000  0.200000      2.000000
  0.166667  0.000000  0.200000      6.000000
  0.333333  0.000000  0.200000      6.000000
  0.500000  0.000000  0.200000      6.000000
 -0.333333  0.000000  0.200000      6.000000
 -0.166667  0.000000  0.200000      6.000000
  0.166667  0.166667  0.200000     12.000000
  0.333333  0.166667  0.200000     12.000000
  0.500000  0.166667  0.200000     12.000000
  0.333333  0.333333  0.200000      4.000000
  0.000000  0.000000  0.400000      2.000000
  0.166667  0.000000  0.400000      6.000000
  0.333333  0.000000  0.400000      6.000000
  0.500000  0.000000  0.400000      6.000000
 -0.333333  0.000000  0.400000      6.000000
 -0.166667  0.000000  0.400000      6.000000
  0.166667  0.166667  0.400000     12.000000
  0.333333  0.166667  0.400000     12.000000
  0.500000  0.166667  0.400000     12.000000
  0.333333  0.333333  0.400000      4.000000
 
 Following cartesian coordinates:
            Coordinates               Weight
  0.000000  0.000000  0.000000      1.000000
  0.033918  0.019583  0.000000      6.000000
  0.067836  0.039165  0.000000      6.000000
  0.101754  0.058748  0.000000      3.000000
  0.033918  0.058748  0.000000      6.000000
  0.067836  0.078330  0.000000     12.000000
  0.067836  0.117496  0.000000      2.000000
  0.000000  0.000000  0.037001      2.000000
  0.033918  0.019583  0.037001      6.000000
  0.067836  0.039165  0.037001      6.000000
  0.101754  0.058748  0.037001      6.000000
 -0.067836 -0.039165  0.037001      6.000000
 -0.033918 -0.019583  0.037001      6.000000
  0.033918  0.058748  0.037001     12.000000
  0.067836  0.078330  0.037001     12.000000
  0.101754  0.097913  0.037001     12.000000
  0.067836  0.117496  0.037001      4.000000
  0.000000  0.000000  0.074003      2.000000
  0.033918  0.019583  0.074003      6.000000
  0.067836  0.039165  0.074003      6.000000
  0.101754  0.058748  0.074003      6.000000
 -0.067836 -0.039165  0.074003      6.000000
 -0.033918 -0.019583  0.074003      6.000000
  0.033918  0.058748  0.074003     12.000000
  0.067836  0.078330  0.074003     12.000000
  0.101754  0.097913  0.074003     12.000000
  0.067836  0.117496  0.074003      4.000000
 
 TETIRR: Found    231 inequivalent tetrahedra from     1080


--------------------------------------------------------------------------------------------------------




 Dimension of arrays:
   k-points           NKPTS =     27   k-points in BZ     NKDIM =     27   number of bands    NBANDS=     30
   number of dos      NEDOS =    301   number of ions     NIONS =      9
   non local maximal  LDIM  =      4   non local SUM 2l+1 LMDIM =      8
   total plane-waves  NPLWV =  28800
   max r-space proj   IRMAX =   1330   max aug-charges    IRDMAX=   8718
   dimension x,y,z NGX =    30 NGY =   30 NGZ =   32
   dimension x,y,z NGXF=    60 NGYF=   60 NGZF=   64
   support grid    NGXF=    60 NGYF=   60 NGZF=   64
   ions per type =               3   6
   NGX,Y,Z   is equivalent  to a cutoff of  10.15, 10.15,  9.84 a.u.
   NGXF,Y,Z  is equivalent  to a cutoff of  20.30, 20.30, 19.68 a.u.

 SYSTEM =  unknown system                          
 POSCAR =   SiO2                                   

 Startparameter for this run:
   NWRITE =      2    write-flag & timer
   PREC   = normal    normal or accurate (medium, high low for compatibility)
   ISTART =      0    job   : 0-new  1-cont  2-samecut
   ICHARG =      2    charge: 1-file 2-atom 10-const
   ISPIN  =      1    spin polarized calculation?
   LNONCOLLINEAR =      F non collinear calculations
   LSORBIT =      F    spin-orbit coupling
   INIWAV =      1    electr: 0-lowe 1-rand  2-diag
   LASPH  =      F    aspherical Exc in radial PAW
   METAGGA=      F    non-selfconsistent MetaGGA calc.

 Electronic Relaxation 1
   ENCUT  =  600.0 eV  44.10 Ry    6.64 a.u.   9.81  9.81 10.80*2*pi/ulx,y,z
   ENINI  =  600.0     initial cutoff
   ENAUG  =  605.4 eV  augmentation charge cutoff
   NELM   =     60;   NELMIN=  4; NELMDL= -5     # of ELM steps 
   EDIFF  = 0.1E-04   stopping-criterion for ELM
   LREAL  =      T    real-space projection
   NLSPLINE    = F    spline interpolate recip. space projectors
   LCOMPAT=      F    compatible to vasp.4.4
   GGA_COMPAT  = T    GGA compatible to vasp.4.4-vasp.4.6
   LMAXPAW     = -100 max onsite density
   LMAXMIX     =    2 max onsite mixed and CHGCAR
   VOSKOWN=      0    Vosko Wilk Nusair interpolation
   ROPT   =   -0.00050  -0.00050
 Ionic relaxation
   EDIFFG = 0.1E-03   stopping-criterion for IOM
   NSW    =      0    number of steps for IOM
   NBLOCK =      1;   KBLOCK =      1    inner block; outer block 
   IBRION =     -1    ionic relax: 0-MD 1-quasi-New 2-CG
   NFREE  =      0    steps in history (QN), initial steepest desc. (CG)
   ISIF   =      2    stress and relaxation
   IWAVPR =     10    prediction:  0-non 1-charg 2-wave 3-comb
   ISYM   =      2    0-nonsym 1-usesym 2-fastsym
   LCORR  =      T    Harris-Foulkes like correction to forces

   POTIM  = 0.5000    time-step for ionic-motion
   TEIN   =    0.0    initial temperature
   TEBEG  =    0.0;   TEEND  =   0.0 temperature during run
   SMASS  =  -3.00    Nose mass-parameter (am)
   estimated Nose-frequenzy (Omega)   =  0.10E-29 period in steps =****** mass=  -0.552E-27a.u.
   SCALEE = 1.0000    scale energy and forces
   NPACO  =    256;   APACO  = 16.0  distance and # of slots for P.C.
   PSTRESS=    0.0 pullay stress

  Mass of Ions in am
   POMASS =  28.09 16.00
  Ionic Valenz
   ZVAL   =   4.00  6.00
  Atomic Wigner-Seitz radii
   RWIGS  =  -1.00 -1.00
  virtual crystal weights 
   VCA    =   1.00  1.00
   NELECT =      48.0000    total number of electrons
   NUPDOWN=      -1.0000    fix difference up-down

 DOS related values:
   EMIN   =  10.00;   EMAX   =-10.00  energy-range for DOS
   EFERMI =   0.00
   ISMEAR =    -5;   SIGMA  =   0.20  broadening in eV -4-tet -1-fermi 0-gaus

 Electronic relaxation 2 (details)
   IALGO  =     68    algorithm
   LDIAG  =      T    sub-space diagonalisation (order eigenvalues)
   LSUBROT=      F    optimize rotation matrix (better conditioning)
   TURBO    =      0    0=normal 1=particle mesh
   IRESTART =      0    0=no restart 2=restart with 2 vectors
   NREBOOT  =      0    no. of reboots
   NMIN     =      0    reboot dimension
   EREF     =   0.00    reference energy to select bands
   IMIX   =      4    mixing-type and parameters
     AMIX     =   0.40;   BMIX     =  1.00
     AMIX_MAG =   1.60;   BMIX_MAG =  1.00
     AMIN     =   0.10
     WC   =   100.;   INIMIX=   1;  MIXPRE=   1;  MAXMIX= -45

 Intra band minimization:
   WEIMIN = 0.0000     energy-eigenvalue tresh-hold
   EBREAK =  0.83E-07  absolut break condition
   DEPER  =   0.30     relativ break condition  

   TIME   =   0.40     timestep for ELM

  volume/ion in A,a.u.               =      12.56        84.75
  Fermi-wavevector in a.u.,A,eV,Ry     =   1.230541  2.325386 20.602369  1.514231
  Thomas-Fermi vector in A             =   2.365386
 
 Write flags
   LWAVE        =      F    write WAVECAR
   LDOWNSAMPLE  =      F    k-point downsampling of WAVECAR
   LCHARG       =      T    write CHGCAR
   LVTOT        =      F    write LOCPOT, total local potential
   LVHAR        =      F    write LOCPOT, Hartree potential only
   LELF         =      F    write electronic localiz. function (ELF)
   LORBIT       =      0    0 simple, 1 ext, 2 COOP (PROOUT), +10 PAW based schemes


 Dipole corrections
   LMONO  =      F    monopole corrections only (constant potential shift)
   LDIPOL =      F    correct potential (dipole corrections)
   IDIPOL =      0    1-x, 2-y, 3-z, 4-all directions 
   EPSILON=  1.0000000 bulk dielectric constant

 Exchange correlation treatment:
   GGA     =    --    GGA type
   LEXCH   =     8    internal setting for exchange type
   VOSKOWN=      0    Vosko Wilk Nusair interpolation
   LHFCALC =     F    Hartree Fock is set to
   LHFONE  =     F    Hartree Fock one center treatment
   AEXX    =    0.0000 exact exchange contribution

 Linear response parameters
   LEPSILON=     F    determine dielectric tensor
   LRPA    =     F    only Hartree local field effects (RPA)
   LNABLA  =     F    use nabla operator in PAW spheres
   LVEL    =     F    velocity operator in full k-point grid
   LINTERFAST=   F  fast interpolation
   KINTER  =     0    interpolate to denser k-point grid
   CSHIFT  =0.1000    complex shift for real part using Kramers Kronig
   OMEGAMAX=  -1.0    maximum frequency
   DEG_THRESHOLD= 0.2000000E-02 threshold for treating states as degnerate
   RTIME   =   -0.100 relaxation time in fs
  (WPLASMAI=    0.000 imaginary part of plasma frequency in eV, 0.658/RTIME)
   DFIELD  = 0.0000000 0.0000000 0.0000000 field for delta impulse in time
 
 Orbital magnetization related:
   ORBITALMAG=     F  switch on orbital magnetization
   LCHIMAG   =     F  perturbation theory with respect to B field
   DQ        =  0.001000  dq finite difference perturbation B field
   LLRAUG    =     F  two centre corrections for induced B field



--------------------------------------------------------------------------------------------------------


 Static calculation
 charge density and potential will be updated during run
 non-spin polarized calculation
 RMM-DIIS sequential band-by-band and
  variant of blocked Davidson during initial phase
 perform sub-space diagonalisation
    before iterative eigenvector-optimisation
 modified Broyden-mixing scheme, WC =      100.0
 initial mixing is a Kerker type mixing with AMIX =  0.4000 and BMIX =      1.0000
 Hartree-type preconditioning will be used
 using additional bands            6
 real space projection scheme for non local part
 use partial core corrections
 calculate Harris-corrections to forces 
   (improved forces if not selfconsistent)
 use gradient corrections 
 use of overlap-Matrix (Vanderbilt PP)
 Fermi weights with tetrahedron method with Bloechl corrections


--------------------------------------------------------------------------------------------------------


  energy-cutoff  :      600.00
  volume of cell :      113.03
      direct lattice vectors                 reciprocal lattice vectors
     4.913800000  0.000000000  0.000000000     0.203508486  0.117495679  0.000000000
    -2.456900000  4.255475629  0.000000000     0.000000000  0.234991359  0.000000000
     0.000000000  0.000000000  5.405200000     0.000000000  0.000000000  0.185007030

  length of vectors
     4.913800000  4.913800000  5.405200000     0.234991359  0.234991359  0.185007030


 
 k-points in units of 2pi/SCALE and weight: k-density: 4.0                          
   0.00000000  0.00000000  0.00000000       0.006
   0.03391808  0.01958261  0.00000000       0.033
   0.06783616  0.03916523  0.00000000       0.033
   0.10175424  0.05874784  0.00000000       0.017
   0.03391808  0.05874784  0.00000000       0.033
   0.06783616  0.07833045  0.00000000       0.067
   0.06783616  0.11749568  0.00000000       0.011
   0.00000000  0.00000000  0.03700141       0.011
   0.03391808  0.01958261  0.03700141       0.033
   0.06783616  0.03916523  0.03700141       0.033
   0.10175424  0.05874784  0.03700141       0.033
  -0.06783616 -0.03916523  0.03700141       0.033
  -0.03391808 -0.01958261  0.03700141       0.033
   0.03391808  0.05874784  0.03700141       0.067
   0.06783616  0.07833045  0.03700141       0.067
   0.10175424  0.09791307  0.03700141       0.067
   0.06783616  0.11749568  0.03700141       0.022
   0.00000000  0.00000000  0.07400281       0.011
   0.03391808  0.01958261  0.07400281       0.033
   0.06783616  0.03916523  0.07400281       0.033
   0.10175424  0.05874784  0.07400281       0.033
  -0.06783616 -0.03916523  0.07400281       0.033
  -0.03391808 -0.01958261  0.07400281       0.033
   0.03391808  0.05874784  0.07400281       0.067
   0.06783616  0.07833045  0.07400281       0.067
   0.10175424  0.09791307  0.07400281       0.067
   0.06783616  0.11749568  0.07400281       0.022
 
 k-points in reciprocal lattice and weights: k-density: 4.0                          
   0.00000000  0.00000000  0.00000000       0.006
   0.16666667  0.00000000  0.00000000       0.033
   0.33333333  0.00000000  0.00000000       0.033
   0.50000000  0.00000000  0.00000000       0.017
   0.16666667  0.16666667  0.00000000       0.033
   0.33333333  0.16666667  0.00000000       0.067
   0.33333333  0.33333333  0.00000000       0.011
   0.00000000  0.00000000  0.20000000       0.011
   0.16666667  0.00000000  0.20000000       0.033
   0.33333333  0.00000000  0.20000000       0.033
   0.50000000  0.00000000  0.20000000       0.033
  -0.33333333  0.00000000  0.20000000       0.033
  -0.16666667  0.00000000  0.20000000       0.033
   0.16666667  0.16666667  0.20000000       0.067
   0.33333333  0.16666667  0.20000000       0.067
   0.50000000  0.16666667  0.20000000       0.067
   0.33333333  0.33333333  0.20000000       0.022
   0.00000000  0.00000000  0.40000000       0.011
   0.16666667  0.00000000  0.40000000       0.033
   0.33333333  0.00000000  0.40000000       0.033
   0.50000000  0.00000000  0.40000000       0.033
  -0.33333333  0.00000000  0.40000000       0.033
  -0.16666667  0.00000000  0.40000000       0.033
   0.16666667  0.16666667  0.40000000       0.067
   0.33333333  0.16666667  0.40000000       0.067
   0.50000000  0.16666667  0.40000000       0.067
   0.33333333  0.33333333  0.40000000       0.022
 
 position of ions in fractional coordinates (direct lattice) 
   0.46980000  0.00000000  0.66666667
   0.53020000  0.53020000  0.00000000
   0.00000000  0.46980000  0.33333333
   0.41450000  0.26620000  0.78560000
   0.58550000  0.85170000  0.88106667
   0.14830000  0.73380000  0.54773333
   0.26620000  0.41450000  0.21440000
   0.85170000  0.58550000  0.11893333
   0.73380000  0.14830000  0.45226667
 
 position of ions in cartesian coordinates  (Angst):
   2.30850324  0.00000000  3.60346667
   1.30264838  2.25625318  0.00000000
  -1.15425162  1.99922245  1.80173333
   1.38274332  1.13280761  4.24632512
   0.78448817  3.62438859  4.76234155
  -1.07415668  3.12266802  2.96060821
   0.28966851  1.76389465  1.15887488
   2.74656851  2.49158098  0.64285845
   3.24138817  0.63108704  2.44459179
 


--------------------------------------------------------------------------------------------------------


 k-point  1 :   0.0000 0.0000 0.0000  plane waves:    3753
 k-point  2 :   0.1667 0.0000 0.0000  plane waves:    3777
 k-point  3 :   0.3333 0.0000 0.0000  plane waves:    3783
 k-point  4 :   0.5000 0.0000 0.0000  plane waves:    3778
 k-point  5 :   0.1667 0.1667 0.0000  plane waves:    3770
 k-point  6 :   0.3333 0.1667 0.0000  plane waves:    3767
 k-point  7 :   0.3333 0.3333 0.0000  plane waves:    3762
 k-point  8 :   0.0000 0.0000 0.2000  plane waves:    3759
 k-point  9 :   0.1667 0.0000 0.2000  plane waves:    3770
 k-point 10 :   0.3333 0.0000 0.2000  plane waves:    3772
 k-point 11 :   0.5000 0.0000 0.2000  plane waves:    3778
 k-point 12 :  -0.3333 0.0000 0.2000  plane waves:    3772
 k-point 13 :  -0.1667 0.0000 0.2000  plane waves:    3770
 k-point 14 :   0.1667 0.1667 0.2000  plane waves:    3767
 k-point 15 :   0.3333 0.1667 0.2000  plane waves:    3773
 k-point 16 :   0.5000 0.1667 0.2000  plane waves:    3773
 k-point 17 :   0.3333 0.3333 0.2000  plane waves:    3747
 k-point 18 :   0.0000 0.0000 0.4000  plane waves:    3754
 k-point 19 :   0.1667 0.0000 0.4000  plane waves:    3756
 k-point 20 :   0.3333 0.0000 0.4000  plane waves:    3779
 k-point 21 :   0.5000 0.0000 0.4000  plane waves:    3758
 k-point 22 :  -0.3333 0.0000 0.4000  plane waves:    3779
 k-point 23 :  -0.1667 0.0000 0.4000  plane waves:    3756
 k-point 24 :   0.1667 0.1667 0.4000  plane waves:    3773
 k-point 25 :   0.3333 0.1667 0.4000  plane waves:    3782
 k-point 26 :   0.5000 0.1667 0.4000  plane waves:    3782
 k-point 27 :   0.3333 0.3333 0.4000  plane waves:    3777

 maximum and minimum number of plane-waves per node :      1904     1857

 maximum number of plane-waves:      3783
 maximum index in each direction: 
   IXMAX=   10   IYMAX=    9   IZMAX=   10
   IXMIN=  -10   IYMIN=  -10   IZMIN=  -11


 real space projection operators:
  total allocation   :        698.81 KBytes
  max/ min on nodes  :        349.75        349.06


 parallel 3D FFT for wavefunctions:
    minimum data exchange during FFTs selected (reduces bandwidth)
 parallel 3D FFT for charge:
    minimum data exchange during FFTs selected (reduces bandwidth)


 total amount of memory used by VASP MPI-rank0    49476. kBytes
=======================================================================

   base      :      30000. kBytes
   nonlr-proj:        627. kBytes
   fftplans  :       2435. kBytes
   grid      :       3880. kBytes
   one-center:         15. kBytes
   wavefun   :      12519. kBytes
 
     INWAV:  cpu time    0.0001: real time    0.0002
 Broyden mixing: mesh for mixing (old mesh)
   NGX = 19   NGY = 19   NGZ = 21
  (NGX  = 60   NGY  = 60   NGZ  = 64)
  gives a total of   7581 points

 initial charge density was supplied:
 charge density of overlapping atoms calculated
 number of electron      48.0000000 magnetization 
 keeping initial charge density in first step


--------------------------------------------------------------------------------------------------------


 Maximum index for non-local projection operator          626
 Maximum index for augmentation-charges         2088 (set IRDMAX)


--------------------------------------------------------------------------------------------------------


 First call to EWALD:  gamma=   0.367
 Maximum number of real-space cells 3x 3x 3
 Maximum number of reciprocal cells 3x 3x 3

    FEWALD:  cpu time    0.0015: real time    0.0015


--------------------------------------- Iteration      1(   1)  ---------------------------------------


    POTLOK:  cpu time    0.0390: real time    0.4317
    SETDIJ:  cpu time    0.0050: real time    0.0056
     EDDAV:  cpu time    1.7611: real time    1.7875
 BZINTS: Fermi energy: 17.130441; 48.000000 electrons
         Band energy:  -5.177844;  BLOECHL correction: -0.110619
       DOS:  cpu time    0.0116: real time    0.0124
    --------------------------------------------
      LOOP:  cpu time    1.8167: real time    2.2372

 eigenvalue-minimisations  :  1620
 total energy-change (2. order) : 0.3272732E+03  (-0.2779052E+04)
 number of electron      48.0000000 magnetization 
 augmentation part       48.0000000 magnetization 

 Free energy of the ion-electron system (eV)
  ---------------------------------------------------
  alpha Z        PSCENC =        69.72428684
  Ewald energy   TEWEN  =     -1887.17190222
  -Hartree energ DENC   =      -937.16683993
  -exchange      EXHF   =         0.00000000
  -V(xc)+E(xc)   XCENC  =       142.01202069
  PAW double counting   =      1574.92322788    -1533.24131965
  entropy T*S    EENTRO =         0.00000000
  eigenvalues    EBANDS =        -5.17784360
  atomic energy  EATOM  =      2903.37156096
  Solvation  Ediel_sol  =         0.00000000
  ---------------------------------------------------
  free energy    TOTEN  =       327.27319098 eV

  energy without entropy =      327.27319098  energy(sigma->0) =      327.27319098


--------------------------------------------------------------------------------------------------------




--------------------------------------- Iteration      1(   2)  ---------------------------------------


     EDDAV:  cpu time    2.1340: real time    2.1485
 BZINTS: Fermi energy: -0.571009; 48.000000 electrons
         Band energy:-391.624522;  BLOECHL correction:  0.000000
       DOS:  cpu time    0.0029: real time    0.0029
    --------------------------------------------
      LOOP:  cpu time    2.1369: real time    2.1514

 eigenvalue-minimisations  :  2148
 total energy-change (2. order) :-0.3864467E+03  (-0.3770218E+03)
 number of electron      48.0000000 magnetization 
 augmentation part       48.0000000 magnetization 

 Free energy of the ion-electron system (eV)
  ---------------------------------------------------
  alpha Z        PSCENC =        69.72428684
  Ewald energy   TEWEN  =     -1887.17190222
  -Hartree energ DENC   =      -937.16683993
  -exchange      EXHF   =         0.00000000
  -V(xc)+E(xc)   XCENC  =       142.01202069
  PAW double counting   =      1574.92322788    -1533.24131965
  entropy T*S    EENTRO =         0.00000000
  eigenvalues    EBANDS =      -391.62452195
  atomic energy  EATOM  =      2903.37156096
  Solvation  Ediel_sol  =         0.00000000
  ---------------------------------------------------
  free energy    TOTEN  =       -59.17348736 eV

  energy without entropy =      -59.17348736  energy(sigma->0) =      -59.17348736


--------------------------------------------------------------------------------------------------------




--------------------------------------- Iteration      1(   3)  ---------------------------------------


     EDDAV:  cpu time    1.9086: real time    1.9216
 BZINTS: Fermi energy: -2.174611; 48.000000 electrons
         Band energy:-412.813678;  BLOECHL correction:  0.000000
       DOS:  cpu time    0.0021: real time    0.0021
    --------------------------------------------
      LOOP:  cpu time    1.9107: real time    1.9237

 eigenvalue-minimisations  :  1932
 total energy-change (2. order) :-0.2118916E+02  (-0.2111239E+02)
 number of electron      48.0000000 magnetization 
 augmentation part       48.0000000 magnetization 

 Free energy of the ion-electron system (eV)
  ---------------------------------------------------
  alpha Z        PSCENC =        69.72428684
  Ewald energy   TEWEN  =     -1887.17190222
  -Hartree energ DENC   =      -937.16683993
  -exchange      EXHF   =         0.00000000
  -V(xc)+E(xc)   XCENC  =       142.01202069
  PAW double counting   =      1574.92322788    -1533.24131965
  entropy T*S    EENTRO =         0.00000000
  eigenvalues    EBANDS =      -412.81367781
  atomic energy  EATOM  =      2903.37156096
  Solvation  Ediel_sol  =         0.00000000
  ---------------------------------------------------
  free energy    TOTEN  =       -80.36264322 eV

  energy without entropy =      -80.36264322  energy(sigma->0) =      -80.36264322


--------------------------------------------------------------------------------------------------------




--------------------------------------- Iteration      1(   4)  ---------------------------------------


     EDDAV:  cpu time    1.8988: real time    1.9117
 BZINTS: Fermi energy: -2.151197; 48.000000 electrons
         Band energy:-413.083182;  BLOECHL correction:  0.000000
       DOS:  cpu time    0.0024: real time    0.0024
    --------------------------------------------
      LOOP:  cpu time    1.9012: real time    1.9141

 eigenvalue-minimisations  :  1944
 total energy-change (2. order) :-0.2695045E+00  (-0.2690563E+00)
 number of electron      48.0000000 magnetization 
 augmentation part       48.0000000 magnetization 

 Free energy of the ion-electron system (eV)
  ---------------------------------------------------
  alpha Z        PSCENC =        69.72428684
  Ewald energy   TEWEN  =     -1887.17190222
  -Hartree energ DENC   =      -937.16683993
  -exchange      EXHF   =         0.00000000
  -V(xc)+E(xc)   XCENC  =       142.01202069
  PAW double counting   =      1574.92322788    -1533.24131965
  entropy T*S    EENTRO =         0.00000000
  eigenvalues    EBANDS =      -413.08318230
  atomic energy  EATOM  =      2903.37156096
  Solvation  Ediel_sol  =         0.00000000
  ---------------------------------------------------
  free energy    TOTEN  =       -80.63214771 eV

  energy without entropy =      -80.63214771  energy(sigma->0) =      -80.63214771


--------------------------------------------------------------------------------------------------------




--------------------------------------- Iteration      1(   5)  ---------------------------------------


     EDDAV:  cpu time    1.8647: real time    1.8774
 BZINTS: Fermi energy: -2.175232; 48.000000 electrons
         Band energy:-413.088105;  BLOECHL correction:  0.000000
       DOS:  cpu time    0.0021: real time    0.0021
    CHARGE:  cpu time    0.1129: real time    0.1136
    MIXING:  cpu time    0.0025: real time    0.0033
    --------------------------------------------
      LOOP:  cpu time    1.9822: real time    1.9964

 eigenvalue-minimisations  :  1884
 total energy-change (2. order) :-0.4922588E-02  (-0.4921353E-02)
 number of electron      48.0000079 magnetization 
 augmentation part        4.4765607 magnetization 

 Broyden mixing:
  rms(total) = 0.18772E+01    rms(broyden)= 0.18768E+01
  rms(prec ) = 0.34990E+01
  weight for this iteration     100.00

 Free energy of the ion-electron system (eV)
  ---------------------------------------------------
  alpha Z        PSCENC =        69.72428684
  Ewald energy   TEWEN  =     -1887.17190222
  -Hartree energ DENC   =      -937.16683993
  -exchange      EXHF   =         0.00000000
  -V(xc)+E(xc)   XCENC  =       142.01202069
  PAW double counting   =      1574.92322788    -1533.24131965
  entropy T*S    EENTRO =         0.00000000
  eigenvalues    EBANDS =      -413.08810489
  atomic energy  EATOM  =      2903.37156096
  Solvation  Ediel_sol  =         0.00000000
  ---------------------------------------------------
  free energy    TOTEN  =       -80.63707030 eV

  energy without entropy =      -80.63707030  energy(sigma->0) =      -80.63707030


--------------------------------------------------------------------------------------------------------




--------------------------------------- Iteration      1(   6)  ---------------------------------------


    POTLOK:  cpu time    0.0360: real time    0.0368
    SETDIJ:  cpu time    0.0050: real time    0.0050
    EDDIAG:  cpu time    0.3727: real time    0.3753
  RMM-DIIS:  cpu time    1.1808: real time    1.1882
    ORTHCH:  cpu time    0.0338: real time    0.0340
 BZINTS: Fermi energy:  0.707228; 48.000000 electrons
         Band energy:-299.663543;  BLOECHL correction:  0.000000
       DOS:  cpu time    0.0024: real time    0.0024
    CHARGE:  cpu time    0.1147: real time    0.1154
    MIXING:  cpu time    0.0018: real time    0.0018
    --------------------------------------------
      LOOP:  cpu time    1.7472: real time    1.7589

 eigenvalue-minimisations  :  1718
 total energy-change (2. order) : 0.9611048E+01  (-0.4049517E+01)
 number of electron      48.0000067 magnetization 
 augmentation part        3.6532004 magnetization 

 Broyden mixing:
  rms(total) = 0.51165E+00    rms(broyden)= 0.51120E+00
  rms(prec ) = 0.81510E+00
  weight for this iteration     100.00

 eigenvalues of (default mixing * dielectric matrix)
  average eigenvalue GAMMA=   0.9954
  0.9954

 Free energy of the ion-electron system (eV)
  ---------------------------------------------------
  alpha Z        PSCENC =        69.72428684
  Ewald energy   TEWEN  =     -1887.17190222
  -Hartree energ DENC   =     -1046.05867776
  -exchange      EXHF   =         0.00000000
  -V(xc)+E(xc)   XCENC  =       149.31955093
  PAW double counting   =      1883.96959926    -1844.51689671
  entropy T*S    EENTRO =         0.00000000
  eigenvalues    EBANDS =      -299.66354326
  atomic energy  EATOM  =      2903.37156096
  Solvation  Ediel_sol  =         0.00000000
  ---------------------------------------------------
  free energy    TOTEN  =       -71.02602194 eV

  energy without entropy =      -71.02602194  energy(sigma->0) =      -71.02602194


--------------------------------------------------------------------------------------------------------




--------------------------------------- Iteration      1(   7)  ---------------------------------------


    POTLOK:  cpu time    0.0362: real time    0.0370
    SETDIJ:  cpu time    0.0049: real time    0.0050
    EDDIAG:  cpu time    0.3691: real time    0.3713
  RMM-DIIS:  cpu time    1.3001: real time    1.3082
    ORTHCH:  cpu time    0.0338: real time    0.0340
 BZINTS: Fermi energy:  1.075152; 48.000000 electrons
         Band energy:-283.795833;  BLOECHL correction:  0.000000
       DOS:  cpu time    0.0024: real time    0.0024
    CHARGE:  cpu time    0.1143: real time    0.1150
    MIXING:  cpu time    0.0019: real time    0.0020
    --------------------------------------------
      LOOP:  cpu time    1.8628: real time    1.8748

 eigenvalue-minimisations  :  1904
 total energy-change (2. order) : 0.2161706E-01  (-0.1490993E+00)
 number of electron      48.0000066 magnetization 
 augmentation part        3.5485542 magnetization 

 Broyden mixing:
  rms(total) = 0.33799E+00    rms(broyden)= 0.33792E+00
  rms(prec ) = 0.48100E+00
  weight for this iteration     100.00

 eigenvalues of (default mixing * dielectric matrix)
  average eigenvalue GAMMA=   1.7520
  1.1450  2.3590

 Free energy of the ion-electron system (eV)
  ---------------------------------------------------
  alpha Z        PSCENC =        69.72428684
  Ewald energy   TEWEN  =     -1887.17190222
  -Hartree energ DENC   =     -1062.87179416
  -exchange      EXHF   =         0.00000000
  -V(xc)+E(xc)   XCENC  =       150.46066815
  PAW double counting   =      1974.96395188    -1935.68534292
  entropy T*S    EENTRO =         0.00000000
  eigenvalues    EBANDS =      -283.79583343
  atomic energy  EATOM  =      2903.37156096
  Solvation  Ediel_sol  =         0.00000000
  ---------------------------------------------------
  free energy    TOTEN  =       -71.00440488 eV

  energy without entropy =      -71.00440488  energy(sigma->0) =      -71.00440488


--------------------------------------------------------------------------------------------------------




--------------------------------------- Iteration      1(   8)  ---------------------------------------


    POTLOK:  cpu time    0.0361: real time    0.0371
    SETDIJ:  cpu time    0.0049: real time    0.0049
    EDDIAG:  cpu time    0.3684: real time    0.3706
  RMM-DIIS:  cpu time    1.2271: real time    1.2347
    ORTHCH:  cpu time    0.0338: real time    0.0340
 BZINTS: Fermi energy:  0.997113; 48.000000 electrons
         Band energy:-280.446535;  BLOECHL correction:  0.000000
       DOS:  cpu time    0.0024: real time    0.0025
    CHARGE:  cpu time    0.1145: real time    0.1151
    MIXING:  cpu time    0.0021: real time    0.0025
    --------------------------------------------
      LOOP:  cpu time    1.7893: real time    1.8014

 eigenvalue-minimisations  :  1835
 total energy-change (2. order) :-0.1808146E-01  (-0.2516772E-01)
 number of electron      48.0000066 magnetization 
 augmentation part        3.5886624 magnetization 

 Broyden mixing:
  rms(total) = 0.62301E-01    rms(broyden)= 0.62296E-01
  rms(prec ) = 0.11563E+00
  weight for this iteration     100.00

 eigenvalues of (default mixing * dielectric matrix)
  average eigenvalue GAMMA=   1.5861
  2.5684  1.0950  1.0950

 Free energy of the ion-electron system (eV)
  ---------------------------------------------------
  alpha Z        PSCENC =        69.72428684
  Ewald energy   TEWEN  =     -1887.17190222
  -Hartree energ DENC   =     -1066.68491802
  -exchange      EXHF   =         0.00000000
  -V(xc)+E(xc)   XCENC  =       150.80444661
  PAW double counting   =      2048.68580517    -2009.30523106
  entropy T*S    EENTRO =         0.00000000
  eigenvalues    EBANDS =      -280.44653463
  atomic energy  EATOM  =      2903.37156096
  Solvation  Ediel_sol  =         0.00000000
  ---------------------------------------------------
  free energy    TOTEN  =       -71.02248634 eV

  energy without entropy =      -71.02248634  energy(sigma->0) =      -71.02248634


--------------------------------------------------------------------------------------------------------




--------------------------------------- Iteration      1(   9)  ---------------------------------------


    POTLOK:  cpu time    0.0499: real time    0.0508
    SETDIJ:  cpu time    0.0050: real time    0.0050
    EDDIAG:  cpu time    0.3741: real time    0.3764
  RMM-DIIS:  cpu time    1.3239: real time    1.3321
    ORTHCH:  cpu time    0.0339: real time    0.0341
 BZINTS: Fermi energy:  1.177770; 48.000000 electrons
         Band energy:-275.644819;  BLOECHL correction:  0.000000
       DOS:  cpu time    0.0024: real time    0.0024
    CHARGE:  cpu time    0.1143: real time    0.1150
    MIXING:  cpu time    0.0020: real time    0.0020
    --------------------------------------------
      LOOP:  cpu time    1.9055: real time    1.9178

 eigenvalue-minimisations  :  1936
 total energy-change (2. order) : 0.6995374E-02  (-0.5522270E-02)
 number of electron      48.0000066 magnetization 
 augmentation part        3.5632110 magnetization 

 Broyden mixing:
  rms(total) = 0.13180E-01    rms(broyden)= 0.13165E-01
  rms(prec ) = 0.19334E-01
  weight for this iteration     100.00

 eigenvalues of (default mixing * dielectric matrix)
  average eigenvalue GAMMA=   1.8796
  2.9618  2.4961  1.0303  1.0303

 Free energy of the ion-electron system (eV)
  ---------------------------------------------------
  alpha Z        PSCENC =        69.72428684
  Ewald energy   TEWEN  =     -1887.17190222
  -Hartree energ DENC   =     -1071.74083513
  -exchange      EXHF   =         0.00000000
  -V(xc)+E(xc)   XCENC  =       151.15167578
  PAW double counting   =      2060.35478458    -2021.06024295
  entropy T*S    EENTRO =         0.00000000
  eigenvalues    EBANDS =      -275.64481885
  atomic energy  EATOM  =      2903.37156096
  Solvation  Ediel_sol  =         0.00000000
  ---------------------------------------------------
  free energy    TOTEN  =       -71.01549097 eV

  energy without entropy =      -71.01549097  energy(sigma->0) =      -71.01549097


--------------------------------------------------------------------------------------------------------




--------------------------------------- Iteration      1(  10)  ---------------------------------------


    POTLOK:  cpu time    0.0365: real time    0.0372
    SETDIJ:  cpu time    0.0050: real time    0.0050
    EDDIAG:  cpu time    0.3607: real time    0.3629
  RMM-DIIS:  cpu time    1.2558: real time    1.2638
    ORTHCH:  cpu time    0.0338: real time    0.0340
 BZINTS: Fermi energy:  1.189178; 48.000000 electrons
         Band energy:-274.609549;  BLOECHL correction:  0.000000
       DOS:  cpu time    0.0024: real time    0.0024
    CHARGE:  cpu time    0.1117: real time    0.1123
    MIXING:  cpu time    0.0021: real time    0.0021
    --------------------------------------------
      LOOP:  cpu time    1.8080: real time    1.8198

 eigenvalue-minimisations  :  1895
 total energy-change (2. order) :-0.3003830E-02  (-0.1386704E-02)
 number of electron      48.0000066 magnetization 
 augmentation part        3.5523755 magnetization 

 Broyden mixing:
  rms(total) = 0.22858E-01    rms(broyden)= 0.22854E-01
  rms(prec ) = 0.38863E-01
  weight for this iteration     100.00

 eigenvalues of (default mixing * dielectric matrix)
  average eigenvalue GAMMA=   1.6775
  2.7980  2.4406  1.0704  1.0704  1.0080

 Free energy of the ion-electron system (eV)
  ---------------------------------------------------
  alpha Z        PSCENC =        69.72428684
  Ewald energy   TEWEN  =     -1887.17190222
  -Hartree energ DENC   =     -1072.82786178
  -exchange      EXHF   =         0.00000000
  -V(xc)+E(xc)   XCENC  =       151.22058471
  PAW double counting   =      2054.01278862    -2014.73840290
  entropy T*S    EENTRO =         0.00000000
  eigenvalues    EBANDS =      -274.60954904
  atomic energy  EATOM  =      2903.37156096
  Solvation  Ediel_sol  =         0.00000000
  ---------------------------------------------------
  free energy    TOTEN  =       -71.01849480 eV

  energy without entropy =      -71.01849480  energy(sigma->0) =      -71.01849480


--------------------------------------------------------------------------------------------------------




--------------------------------------- Iteration      1(  11)  ---------------------------------------


    POTLOK:  cpu time    0.0358: real time    0.0365
    SETDIJ:  cpu time    0.0049: real time    0.0049
    EDDIAG:  cpu time    0.3635: real time    0.3657
  RMM-DIIS:  cpu time    1.2605: real time    1.2684
    ORTHCH:  cpu time    0.0337: real time    0.0339
 BZINTS: Fermi energy:  1.176206; 48.000000 electrons
         Band energy:-275.572680;  BLOECHL correction:  0.000000
       DOS:  cpu time    0.0024: real time    0.0024
    CHARGE:  cpu time    0.1085: real time    0.1091
    MIXING:  cpu time    0.0021: real time    0.0022
    --------------------------------------------
      LOOP:  cpu time    1.8115: real time    1.8230

 eigenvalue-minimisations  :  1936
 total energy-change (2. order) : 0.1292380E-02  (-0.2540867E-03)
 number of electron      48.0000066 magnetization 
 augmentation part        3.5582234 magnetization 

 Broyden mixing:
  rms(total) = 0.64425E-02    rms(broyden)= 0.64415E-02
  rms(prec ) = 0.11268E-01
  weight for this iteration     100.00

 eigenvalues of (default mixing * dielectric matrix)
  average eigenvalue GAMMA=   1.7369
  2.9532  2.4718  1.7377  0.9547  1.1522  1.1522

 Free energy of the ion-electron system (eV)
  ---------------------------------------------------
  alpha Z        PSCENC =        69.72428684
  Ewald energy   TEWEN  =     -1887.17190222
  -Hartree energ DENC   =     -1071.81522389
  -exchange      EXHF   =         0.00000000
  -V(xc)+E(xc)   XCENC  =       151.15216530
  PAW double counting   =      2052.11986974    -2012.82527892
  entropy T*S    EENTRO =         0.00000000
  eigenvalues    EBANDS =      -275.57268024
  atomic energy  EATOM  =      2903.37156096
  Solvation  Ediel_sol  =         0.00000000
  ---------------------------------------------------
  free energy    TOTEN  =       -71.01720242 eV

  energy without entropy =      -71.01720242  energy(sigma->0) =      -71.01720242


--------------------------------------------------------------------------------------------------------




--------------------------------------- Iteration      1(  12)  ---------------------------------------


    POTLOK:  cpu time    0.0358: real time    0.0366
    SETDIJ:  cpu time    0.0048: real time    0.0048
    EDDIAG:  cpu time    0.3476: real time    0.3497
  RMM-DIIS:  cpu time    1.2130: real time    1.2205
    ORTHCH:  cpu time    0.0336: real time    0.0338
 BZINTS: Fermi energy:  1.171845; 48.000000 electrons
         Band energy:-275.894839;  BLOECHL correction:  0.000000
       DOS:  cpu time    0.0024: real time    0.0024
    CHARGE:  cpu time    0.1083: real time    0.1089
    MIXING:  cpu time    0.0023: real time    0.0023
    --------------------------------------------
      LOOP:  cpu time    1.7479: real time    1.7591

 eigenvalue-minimisations  :  1923
 total energy-change (2. order) : 0.4838871E-04  (-0.8109326E-04)
 number of electron      48.0000066 magnetization 
 augmentation part        3.5614963 magnetization 

 Broyden mixing:
  rms(total) = 0.77443E-03    rms(broyden)= 0.76520E-03
  rms(prec ) = 0.12471E-02
  weight for this iteration     100.00

 eigenvalues of (default mixing * dielectric matrix)
  average eigenvalue GAMMA=   1.6865
  2.9173  2.4250  2.0329  1.0002  1.0849  1.1726  1.1726

 Free energy of the ion-electron system (eV)
  ---------------------------------------------------
  alpha Z        PSCENC =        69.72428684
  Ewald energy   TEWEN  =     -1887.17190222
  -Hartree energ DENC   =     -1071.47454033
  -exchange      EXHF   =         0.00000000
  -V(xc)+E(xc)   XCENC  =       151.12738794
  PAW double counting   =      2051.37141045    -2012.07051881
  entropy T*S    EENTRO =         0.00000000
  eigenvalues    EBANDS =      -275.89483887
  atomic energy  EATOM  =      2903.37156096
  Solvation  Ediel_sol  =         0.00000000
  ---------------------------------------------------
  free energy    TOTEN  =       -71.01715403 eV

  energy without entropy =      -71.01715403  energy(sigma->0) =      -71.01715403


--------------------------------------------------------------------------------------------------------




--------------------------------------- Iteration      1(  13)  ---------------------------------------


    POTLOK:  cpu time    0.0354: real time    0.0362
    SETDIJ:  cpu time    0.0051: real time    0.0051
    EDDIAG:  cpu time    0.3444: real time    0.3465
  RMM-DIIS:  cpu time    0.8923: real time    0.8980
    ORTHCH:  cpu time    0.0336: real time    0.0338
 BZINTS: Fermi energy:  1.171624; 48.000000 electrons
         Band energy:-275.854732;  BLOECHL correction:  0.000000
       DOS:  cpu time    0.0024: real time    0.0024
    --------------------------------------------
      LOOP:  cpu time    1.3133: real time    1.3221

 eigenvalue-minimisations  :  1328
 total energy-change (2. order) :-0.1759739E-05  (-0.2091573E-05)
 number of electron      48.0000066 magnetization 
 augmentation part        3.5614963 magnetization 

 Free energy of the ion-electron system (eV)
  ---------------------------------------------------
  alpha Z        PSCENC =        69.72428684
  Ewald energy   TEWEN  =     -1887.17190222
  -Hartree energ DENC   =     -1071.51666195
  -exchange      EXHF   =         0.00000000
  -V(xc)+E(xc)   XCENC  =       151.13008353
  PAW double counting   =      2051.52775284    -2012.22754430
  entropy T*S    EENTRO =         0.00000000
  eigenvalues    EBANDS =      -275.85473150
  atomic energy  EATOM  =      2903.37156096
  Solvation  Ediel_sol  =         0.00000000
  ---------------------------------------------------
  free energy    TOTEN  =       -71.01715579 eV

  energy without entropy =      -71.01715579  energy(sigma->0) =      -71.01715579


--------------------------------------------------------------------------------------------------------




 average (electrostatic) potential at core
  the test charge radii are     0.9892  0.7215
  (the norm of the test charge is              1.0000)
       1 -86.3825       2 -86.3825       3 -86.3825       4 -72.3906       5 -72.3906
       6 -72.3907       7 -72.3906       8 -72.3906       9 -72.3907
 
 
 
 E-fermi :   1.1716     XC(G=0):  -9.2013     alpha+bet :-10.3416


 k-point     1 :       0.0000    0.0000    0.0000
  band No.  band energies     occupation 
      1     -18.3728      2.00000
      2     -16.8361      2.00000
      3     -16.8361      2.00000
      4     -16.2015      2.00000
      5     -16.1535      2.00000
      6     -16.1535      2.00000
      7      -7.1738      2.00000
      8      -7.1738      2.00000
      9      -4.3333      2.00000
     10      -4.3273      2.00000
     11      -4.1750      2.00000
     12      -4.1750      2.00000
     13      -1.8573      2.00000
     14      -1.8573      2.00000
     15      -1.6199      2.00000
     16      -1.3598      2.00000
     17      -0.4086      2.00000
     18      -0.4086      2.00000
     19      -0.3908      2.00000
     20       0.1122      2.00000
     21       0.1122      2.00000
     22       0.4215      2.00000
     23       0.7620      2.00000
     24       0.7620      2.00000
     25       7.1206      0.00000
     26      10.3982      0.00000
     27      10.3982      0.00000
     28      10.8998      0.00000
     29      10.8998      0.00000
     30      12.5169      0.00000

 k-point     2 :       0.1667    0.0000    0.0000
  band No.  band energies     occupation 
      1     -18.2913      2.00000
      2     -16.9304      2.00000
      3     -16.8242      2.00000
      4     -16.2211      2.00000
      5     -16.1706      2.00000
      6     -16.1600      2.00000
      7      -7.2114      2.00000
      8      -6.9922      2.00000
      9      -4.3733      2.00000
     10      -4.3474      2.00000
     11      -4.2759      2.00000
     12      -4.0145      2.00000
     13      -1.9825      2.00000
     14      -1.7975      2.00000
     15      -1.5898      2.00000
     16      -1.1934      2.00000
     17      -0.6823      2.00000
     18      -0.4476      2.00000
     19      -0.4023      2.00000
     20       0.0494      2.00000
     21       0.1022      2.00000
     22       0.3192      2.00000
     23       0.8253      2.00000
     24       0.8590      2.00000
     25       7.5427      0.00000
     26      10.3847      0.00000
     27      10.4449      0.00000
     28      10.9348      0.00000
     29      11.0433      0.00000
     30      12.3646      0.00000

 k-point     3 :       0.3333    0.0000    0.0000
  band No.  band energies     occupation 
      1     -18.0724      2.00000
      2     -17.1896      2.00000
      3     -16.7987      2.00000
      4     -16.2442      2.00000
      5     -16.1990      2.00000
      6     -16.1790      2.00000
      7      -7.2830      2.00000
      8      -6.5726      2.00000
      9      -4.6294      2.00000
     10      -4.3811      2.00000
     11      -4.2992      2.00000
     12      -3.7121      2.00000
     13      -2.0651      2.00000
     14      -1.6892      2.00000
     15      -1.5646      2.00000
     16      -1.1974      2.00000
     17      -0.9983      2.00000
     18      -0.5789      2.00000
     19      -0.4871      2.00000
     20      -0.0018      2.00000
     21       0.0675      2.00000
     22       0.2704      2.00000
     23       0.8532      2.00000
     24       1.0025      2.00000
     25       8.5416      0.00000
     26      10.4281      0.00000
     27      10.5551      0.00000
     28      11.0557      0.00000
     29      11.3938      0.00000
     30      11.7508      0.00000

 k-point     4 :       0.5000    0.0000    0.0000
  band No.  band energies     occupation 
      1     -17.8829      2.00000
      2     -17.4041      2.00000
      3     -16.7850      2.00000
      4     -16.2501      2.00000
      5     -16.2117      2.00000
      6     -16.1906      2.00000
      7      -7.3173      2.00000
      8      -6.3103      2.00000
      9      -4.8176      2.00000
     10      -4.3583      2.00000
     11      -4.3273      2.00000
     12      -3.5463      2.00000
     13      -1.9931      2.00000
     14      -1.8265      2.00000
     15      -1.5957      2.00000
     16      -1.2145      2.00000
     17      -1.0063      2.00000
     18      -0.6619      2.00000
     19      -0.5945      2.00000
     20      -0.0048      2.00000
     21       0.0604      2.00000
     22       0.3010      2.00000
     23       0.8363      2.00000
     24       1.0602      2.00000
     25       9.3789      0.00000
     26      10.1166      0.00000
     27      10.8429      0.00000
     28      10.8438      0.00000
     29      11.6222      0.00000
     30      11.6967      0.00000

 k-point     5 :       0.1667    0.1667    0.0000
  band No.  band energies     occupation 
      1     -18.1386      2.00000
      2     -17.1062      2.00000
      3     -16.8127      2.00000
      4     -16.2390      2.00000
      5     -16.1959      2.00000
      6     -16.1695      2.00000
      7      -7.2755      2.00000
      8      -6.6663      2.00000
      9      -4.6371      2.00000
     10      -4.3661      2.00000
     11      -4.2240      2.00000
     12      -3.8016      2.00000
     13      -2.0320      2.00000
     14      -1.7845      2.00000
     15      -1.4849      2.00000
     16      -1.0848      2.00000
     17      -1.0771      2.00000
     18      -0.5575      2.00000
     19      -0.3596      2.00000
     20      -0.1281      2.00000
     21       0.1850      2.00000
     22       0.2303      2.00000
     23       0.8442      2.00000
     24       0.9800      2.00000
     25       8.2503      0.00000
     26      10.4273      0.00000
     27      10.5690      0.00000
     28      11.0520      0.00000
     29      11.2223      0.00000
     30      11.9616      0.00000

 k-point     6 :       0.3333    0.1667    0.0000
  band No.  band energies     occupation 
      1     -17.8897      2.00000
      2     -17.3847      2.00000
      3     -16.8049      2.00000
      4     -16.2474      2.00000
      5     -16.2100      2.00000
      6     -16.1878      2.00000
      7      -7.3406      2.00000
      8      -6.2102      2.00000
      9      -5.0366      2.00000
     10      -4.3182      2.00000
     11      -4.2264      2.00000
     12      -3.5541      2.00000
     13      -1.9813      2.00000
     14      -1.7822      2.00000
     15      -1.6558      2.00000
     16      -1.1617      2.00000
     17      -0.9993      2.00000
     18      -0.6929      2.00000
     19      -0.5046      2.00000
     20      -0.1863      2.00000
     21       0.0330      2.00000
     22       0.4254      2.00000
     23       0.8027      2.00000
     24       1.0716      2.00000
     25       9.2668      0.00000
     26      10.3663      0.00000
     27      10.6831      0.00000
     28      11.0866      0.00000
     29      11.4957      0.00000
     30      11.7048      0.00000

 k-point     7 :       0.3333    0.3333    0.0000
  band No.  band energies     occupation 
      1     -17.6377      2.00000
      2     -17.6377      2.00000
      3     -16.8190      2.00000
      4     -16.2463      2.00000
      5     -16.2021      2.00000
      6     -16.2021      2.00000
      7      -7.3783      2.00000
      8      -5.6395      2.00000
      9      -5.6395      2.00000
     10      -4.2356      2.00000
     11      -4.2356      2.00000
     12      -3.4597      2.00000
     13      -1.8516      2.00000
     14      -1.8516      2.00000
     15      -1.8008      2.00000
     16      -0.9746      2.00000
     17      -0.9745      2.00000
     18      -0.8185      2.00000
     19      -0.6218      2.00000
     20      -0.1438      2.00000
     21      -0.1438      2.00000
     22       0.6611      2.00000
     23       0.6611      2.00000
     24       1.1027      2.00000
     25      10.0505      0.00000
     26      10.0505      0.00000
     27      10.5388      0.00000
     28      11.4714      0.00000
     29      11.6173      0.00000
     30      11.7845      0.00000

 k-point     8 :       0.0000    0.0000    0.2000
  band No.  band energies     occupation 
      1     -18.2943      2.00000
      2     -17.2851      2.00000
      3     -16.4516      2.00000
      4     -16.1992      2.00000
      5     -16.1692      2.00000
      6     -16.1384      2.00000
      7      -7.8468      2.00000
      8      -6.3465      2.00000
      9      -4.4930      2.00000
     10      -4.4165      2.00000
     11      -4.3676      2.00000
     12      -3.8697      2.00000
     13      -1.9413      2.00000
     14      -1.6627      2.00000
     15      -1.5618      2.00000
     16      -1.2298      2.00000
     17      -0.6020      2.00000
     18      -0.4809      2.00000
     19      -0.4208      2.00000
     20      -0.2811      2.00000
     21       0.0804      2.00000
     22       0.5220      2.00000
     23       0.8125      2.00000
     24       0.9720      2.00000
     25       7.5147      0.00000
     26      10.2548      0.00000
     27      10.4195      0.00000
     28      10.5212      0.00000
     29      11.2230      0.00000
     30      12.1641      0.00000

 k-point     9 :       0.1667    0.0000    0.2000
  band No.  band energies     occupation 
      1     -18.2171      2.00000
      2     -17.2843      2.00000
      3     -16.5348      2.00000
      4     -16.2142      2.00000
      5     -16.1883      2.00000
      6     -16.1497      2.00000
      7      -7.7019      2.00000
      8      -6.3547      2.00000
      9      -4.6713      2.00000
     10      -4.3747      2.00000
     11      -4.1783      2.00000
     12      -3.9193      2.00000
     13      -2.0415      2.00000
     14      -1.6468      2.00000
     15      -1.5259      2.00000
     16      -1.1521      2.00000
     17      -0.8316      2.00000
     18      -0.4951      2.00000
     19      -0.3918      2.00000
     20      -0.2371      2.00000
     21       0.1633      2.00000
     22       0.4181      2.00000
     23       0.7539      2.00000
     24       1.0136      2.00000
     25       7.8907      0.00000
     26      10.2687      0.00000
     27      10.5110      0.00000
     28      10.6057      0.00000
     29      11.2981      0.00000
     30      11.9852      0.00000

 k-point    10 :       0.3333    0.0000    0.2000
  band No.  band energies     occupation 
      1     -18.0154      2.00000
      2     -17.3244      2.00000
      3     -16.7210      2.00000
      4     -16.2417      2.00000
      5     -16.2145      2.00000
      6     -16.1693      2.00000
      7      -7.4087      2.00000
      8      -6.3265      2.00000
      9      -4.9064      2.00000
     10      -4.3334      2.00000
     11      -4.0973      2.00000
     12      -3.8231      2.00000
     13      -2.1367      2.00000
     14      -1.7094      2.00000
     15      -1.4722      2.00000
     16      -1.2093      2.00000
     17      -0.8935      2.00000
     18      -0.6001      2.00000
     19      -0.4893      2.00000
     20      -0.0520      2.00000
     21       0.1629      2.00000
     22       0.2825      2.00000
     23       0.7965      2.00000
     24       0.9689      2.00000
     25       8.8065      0.00000
     26      10.3205      0.00000
     27      10.5728      0.00000
     28      11.0322      0.00000
     29      11.4058      0.00000
     30      11.6570      0.00000

 k-point    11 :       0.5000    0.0000    0.2000
  band No.  band energies     occupation 
      1     -17.8605      2.00000
      2     -17.3931      2.00000
      3     -16.8316      2.00000
      4     -16.2505      2.00000
      5     -16.2162      2.00000
      6     -16.1818      2.00000
      7      -7.2697      2.00000
      8      -6.2711      2.00000
      9      -5.0420      2.00000
     10      -4.3549      2.00000
     11      -4.1028      2.00000
     12      -3.6696      2.00000
     13      -2.0451      2.00000
     14      -1.9441      2.00000
     15      -1.4687      2.00000
     16      -1.2594      2.00000
     17      -0.8430      2.00000
     18      -0.7231      2.00000
     19      -0.4188      2.00000
     20      -0.0708      2.00000
     21       0.1421      2.00000
     22       0.3348      2.00000
     23       0.7234      2.00000
     24       0.9995      2.00000
     25       9.5722      0.00000
     26      10.1824      0.00000
     27      10.6864      0.00000
     28      11.1577      0.00000
     29      11.5840      0.00000
     30      11.7560      0.00000

 k-point    12 :      -0.3333    0.0000    0.2000
  band No.  band energies     occupation 
      1     -18.0190      2.00000
      2     -17.3042      2.00000
      3     -16.7545      2.00000
      4     -16.2338      2.00000
      5     -16.1935      2.00000
      6     -16.1807      2.00000
      7      -7.4123      2.00000
      8      -6.3279      2.00000
      9      -4.9080      2.00000
     10      -4.3726      2.00000
     11      -4.0742      2.00000
     12      -3.7736      2.00000
     13      -2.0724      2.00000
     14      -1.7009      2.00000
     15      -1.5253      2.00000
     16      -1.3878      2.00000
     17      -0.9230      2.00000
     18      -0.4986      2.00000
     19      -0.3452      2.00000
     20      -0.0880      2.00000
     21       0.0649      2.00000
     22       0.3964      2.00000
     23       0.6386      2.00000
     24       1.0624      2.00000
     25       8.7727      0.00000
     26      10.3804      0.00000
     27      10.7665      0.00000
     28      11.1728      0.00000
     29      11.3655      0.00000
     30      11.6883      0.00000

 k-point    13 :      -0.1667    0.0000    0.2000
  band No.  band energies     occupation 
      1     -18.2177      2.00000
      2     -17.2802      2.00000
      3     -16.5460      2.00000
      4     -16.2128      2.00000
      5     -16.1778      2.00000
      6     -16.1537      2.00000
      7      -7.7029      2.00000
      8      -6.3548      2.00000
      9      -4.6755      2.00000
     10      -4.3759      2.00000
     11      -4.1926      2.00000
     12      -3.8907      2.00000
     13      -2.0148      2.00000
     14      -1.6640      2.00000
     15      -1.5205      2.00000
     16      -1.2029      2.00000
     17      -0.8748      2.00000
     18      -0.4098      2.00000
     19      -0.3807      2.00000
     20      -0.2575      2.00000
     21       0.1935      2.00000
     22       0.3795      2.00000
     23       0.7284      2.00000
     24       1.0432      2.00000
     25       7.8809      0.00000
     26      10.3073      0.00000
     27      10.5363      0.00000
     28      10.6551      0.00000
     29      11.2311      0.00000
     30      12.0294      0.00000

 k-point    14 :       0.1667    0.1667    0.2000
  band No.  band energies     occupation 
      1     -18.0763      2.00000
      2     -17.2970      2.00000
      3     -16.6879      2.00000
      4     -16.2300      2.00000
      5     -16.2046      2.00000
      6     -16.1662      2.00000
      7      -7.4850      2.00000
      8      -6.3285      2.00000
      9      -4.8850      2.00000
     10      -4.3396      2.00000
     11      -4.0703      2.00000
     12      -3.8587      2.00000
     13      -2.0936      2.00000
     14      -1.6471      2.00000
     15      -1.5286      2.00000
     16      -1.2563      2.00000
     17      -0.9411      2.00000
     18      -0.4917      2.00000
     19      -0.4102      2.00000
     20      -0.1294      2.00000
     21       0.1798      2.00000
     22       0.3104      2.00000
     23       0.7143      2.00000
     24       1.0313      2.00000
     25       8.5216      0.00000
     26      10.3269      0.00000
     27      10.7368      0.00000
     28      10.8865      0.00000
     29      11.3513      0.00000
     30      11.7133      0.00000

 k-point    15 :       0.3333    0.1667    0.2000
  band No.  band energies     occupation 
      1     -17.8622      2.00000
      2     -17.3913      2.00000
      3     -16.8283      2.00000
      4     -16.2491      2.00000
      5     -16.2247      2.00000
      6     -16.1784      2.00000
      7      -7.2829      2.00000
      8      -6.1874      2.00000
      9      -5.1835      2.00000
     10      -4.3176      2.00000
     11      -4.0703      2.00000
     12      -3.6879      2.00000
     13      -2.0895      2.00000
     14      -1.8119      2.00000
     15      -1.5859      2.00000
     16      -1.1294      2.00000
     17      -0.8967      2.00000
     18      -0.7044      2.00000
     19      -0.4182      2.00000
     20      -0.1355      2.00000
     21       0.1245      2.00000
     22       0.3770      2.00000
     23       0.7409      2.00000
     24       0.9736      2.00000
     25       9.4559      0.00000
     26      10.4450      0.00000
     27      10.6049      0.00000
     28      11.2071      0.00000
     29      11.4087      0.00000
     30      11.6754      0.00000

 k-point    16 :       0.5000    0.1667    0.2000
  band No.  band energies     occupation 
      1     -17.8649      2.00000
      2     -17.3819      2.00000
      3     -16.8401      2.00000
      4     -16.2442      2.00000
      5     -16.2233      2.00000
      6     -16.1794      2.00000
      7      -7.2841      2.00000
      8      -6.1886      2.00000
      9      -5.1831      2.00000
     10      -4.3270      2.00000
     11      -4.0641      2.00000
     12      -3.6731      2.00000
     13      -2.0537      2.00000
     14      -1.8386      2.00000
     15      -1.6042      2.00000
     16      -1.1831      2.00000
     17      -0.9088      2.00000
     18      -0.6702      2.00000
     19      -0.3206      2.00000
     20      -0.1835      2.00000
     21       0.0749      2.00000
     22       0.4585      2.00000
     23       0.6541      2.00000
     24       1.0098      2.00000
     25       9.4455      0.00000
     26      10.3539      0.00000
     27      10.9106      0.00000
     28      11.0661      0.00000
     29      11.5027      0.00000
     30      11.8395      0.00000

 k-point    17 :       0.3333    0.3333    0.2000
  band No.  band energies     occupation 
      1     -17.7370      2.00000
      2     -17.4755      2.00000
      3     -16.8789      2.00000
      4     -16.2436      2.00000
      5     -16.2410      2.00000
      6     -16.1817      2.00000
      7      -7.2383      2.00000
      8      -5.9321      2.00000
      9      -5.5157      2.00000
     10      -4.2951      2.00000
     11      -4.0598      2.00000
     12      -3.6150      2.00000
     13      -2.0575      2.00000
     14      -1.7538      2.00000
     15      -1.7505      2.00000
     16      -0.9654      2.00000
     17      -0.9095      2.00000
     18      -0.8430      2.00000
     19      -0.3606      2.00000
     20      -0.2049      2.00000
     21       0.0292      2.00000
     22       0.5765      2.00000
     23       0.6222      2.00000
     24       0.9687      2.00000
     25      10.0545      0.00000
     26      10.2551      0.00000
     27      10.6646      0.00000
     28      11.3735      0.00000
     29      11.4368      0.00000
     30      11.5267      0.00000

 k-point    18 :       0.0000    0.0000    0.4000
  band No.  band energies     occupation 
      1     -18.0671      2.00000
      2     -17.7163      2.00000
      3     -16.2246      2.00000
      4     -16.1926      2.00000
      5     -16.1825      2.00000
      6     -16.1290      2.00000
      7      -8.2272      2.00000
      8      -5.5280      2.00000
      9      -4.8783      2.00000
     10      -4.5316      2.00000
     11      -4.4994      2.00000
     12      -3.6300      2.00000
     13      -1.7835      2.00000
     14      -1.5529      2.00000
     15      -1.5103      2.00000
     16      -1.0201      2.00000
     17      -0.8429      2.00000
     18      -0.7444      2.00000
     19      -0.6336      2.00000
     20      -0.4569      2.00000
     21      -0.0895      2.00000
     22       0.7665      2.00000
     23       0.9823      2.00000
     24       0.9832      2.00000
     25       8.4960      0.00000
     26       9.6473      0.00000
     27      10.2002      0.00000
     28      10.5272      0.00000
     29      11.2518      0.00000
     30      11.6935      0.00000

 k-point    19 :       0.1667    0.0000    0.4000
  band No.  band energies     occupation 
      1     -18.0052      2.00000
      2     -17.6747      2.00000
      3     -16.3458      2.00000
      4     -16.2138      2.00000
      5     -16.1903      2.00000
      6     -16.1434      2.00000
      7      -8.0274      2.00000
      8      -5.6325      2.00000
      9      -5.0466      2.00000
     10      -4.4313      2.00000
     11      -4.3337      2.00000
     12      -3.6868      2.00000
     13      -1.9235      2.00000
     14      -1.6417      2.00000
     15      -1.4923      2.00000
     16      -1.1184      2.00000
     17      -0.9414      2.00000
     18      -0.5684      2.00000
     19      -0.5213      2.00000
     20      -0.3198      2.00000
     21      -0.0165      2.00000
     22       0.6548      2.00000
     23       0.9077      2.00000
     24       0.9375      2.00000
     25       8.7746      0.00000
     26       9.7837      0.00000
     27      10.3722      0.00000
     28      10.5679      0.00000
     29      11.3112      0.00000
     30      11.6718      0.00000

 k-point    20 :       0.3333    0.0000    0.4000
  band No.  band energies     occupation 
      1     -17.8769      2.00000
      2     -17.5385      2.00000
      3     -16.6586      2.00000
      4     -16.2546      2.00000
      5     -16.1969      2.00000
      6     -16.1659      2.00000
      7      -7.5413      2.00000
      8      -5.9322      2.00000
      9      -5.2300      2.00000
     10      -4.3120      2.00000
     11      -4.0583      2.00000
     12      -3.8225      2.00000
     13      -2.1037      2.00000
     14      -1.9207      2.00000
     15      -1.3481      2.00000
     16      -1.1827      2.00000
     17      -0.9419      2.00000
     18      -0.4831      2.00000
     19      -0.3501      2.00000
     20      -0.1407      2.00000
     21       0.1230      2.00000
     22       0.4588      2.00000
     23       0.6843      2.00000
     24       0.8824      2.00000
     25       9.4998      0.00000
     26      10.0813      0.00000
     27      10.6259      0.00000
     28      10.8026      0.00000
     29      11.5834      0.00000
     30      11.8486      0.00000

 k-point    21 :       0.5000    0.0000    0.4000
  band No.  band energies     occupation 
      1     -17.8208      2.00000
      2     -17.3743      2.00000
      3     -16.9066      2.00000
      4     -16.2718      2.00000
      5     -16.1991      2.00000
      6     -16.1758      2.00000
      7      -7.1866      2.00000
      8      -6.2054      2.00000
      9      -5.2812      2.00000
     10      -4.2833      2.00000
     11      -3.9189      2.00000
     12      -3.8858      2.00000
     13      -2.1134      2.00000
     14      -2.0843      2.00000
     15      -1.3593      2.00000
     16      -1.1036      2.00000
     17      -0.9501      2.00000
     18      -0.5112      2.00000
     19      -0.2085      2.00000
     20      -0.0629      2.00000
     21       0.1308      2.00000
     22       0.4136      2.00000
     23       0.4702      2.00000
     24       0.9109      2.00000
     25       9.9975      0.00000
     26      10.3855      0.00000
     27      10.7492      0.00000
     28      11.0606      0.00000
     29      11.4865      0.00000
     30      11.6470      0.00000

 k-point    22 :      -0.3333    0.0000    0.4000
  band No.  band energies     occupation 
      1     -17.8826      2.00000
      2     -17.5263      2.00000
      3     -16.6762      2.00000
      4     -16.2475      2.00000
      5     -16.1887      2.00000
      6     -16.1700      2.00000
      7      -7.5431      2.00000
      8      -5.9368      2.00000
      9      -5.2241      2.00000
     10      -4.3329      2.00000
     11      -4.0591      2.00000
     12      -3.7835      2.00000
     13      -2.0806      2.00000
     14      -1.9439      2.00000
     15      -1.3179      2.00000
     16      -1.2537      2.00000
     17      -1.0028      2.00000
     18      -0.4096      2.00000
     19      -0.2989      2.00000
     20      -0.1094      2.00000
     21       0.1345      2.00000
     22       0.3287      2.00000
     23       0.6332      2.00000
     24       0.9816      2.00000
     25       9.3820      0.00000
     26      10.3569      0.00000
     27      10.5569      0.00000
     28      11.0706      0.00000
     29      11.2091      0.00000
     30      11.6760      0.00000

 k-point    23 :      -0.1667    0.0000    0.4000
  band No.  band energies     occupation 
      1     -18.0064      2.00000
      2     -17.6724      2.00000
      3     -16.3558      2.00000
      4     -16.2111      2.00000
      5     -16.1824      2.00000
      6     -16.1450      2.00000
      7      -8.0279      2.00000
      8      -5.6339      2.00000
      9      -5.0459      2.00000
     10      -4.4276      2.00000
     11      -4.3423      2.00000
     12      -3.6754      2.00000
     13      -1.9167      2.00000
     14      -1.6389      2.00000
     15      -1.4899      2.00000
     16      -1.1473      2.00000
     17      -0.9736      2.00000
     18      -0.5659      2.00000
     19      -0.4491      2.00000
     20      -0.3444      2.00000
     21      -0.0162      2.00000
     22       0.6529      2.00000
     23       0.8177      2.00000
     24       1.0231      2.00000
     25       8.7486      0.00000
     26       9.8390      0.00000
     27      10.3312      0.00000
     28      10.6863      0.00000
     29      11.2030      0.00000
     30      11.6557      0.00000

 k-point    24 :       0.1667    0.1667    0.4000
  band No.  band energies     occupation 
      1     -17.9099      2.00000
      2     -17.5820      2.00000
      3     -16.5721      2.00000
      4     -16.2388      2.00000
      5     -16.1927      2.00000
      6     -16.1669      2.00000
      7      -7.6788      2.00000
      8      -5.8239      2.00000
      9      -5.2263      2.00000
     10      -4.3106      2.00000
     11      -4.1502      2.00000
     12      -3.7681      2.00000
     13      -2.0596      2.00000
     14      -1.8390      2.00000
     15      -1.3861      2.00000
     16      -1.2432      2.00000
     17      -0.9345      2.00000
     18      -0.4958      2.00000
     19      -0.3542      2.00000
     20      -0.1451      2.00000
     21       0.0893      2.00000
     22       0.4581      2.00000
     23       0.7444      2.00000
     24       0.9094      2.00000
     25       9.2311      0.00000
     26      10.0933      0.00000
     27      10.5304      0.00000
     28      10.9155      0.00000
     29      11.3005      0.00000
     30      11.6576      0.00000

 k-point    25 :       0.3333    0.1667    0.4000
  band No.  band energies     occupation 
      1     -17.8143      2.00000
      2     -17.3997      2.00000
      3     -16.8752      2.00000
      4     -16.2695      2.00000
      5     -16.2076      2.00000
      6     -16.1830      2.00000
      7      -7.1803      2.00000
      8      -6.1599      2.00000
      9      -5.3708      2.00000
     10      -4.2297      2.00000
     11      -3.9633      2.00000
     12      -3.8818      2.00000
     13      -2.1517      2.00000
     14      -1.9546      2.00000
     15      -1.4597      2.00000
     16      -1.0935      2.00000
     17      -0.8782      2.00000
     18      -0.6358      2.00000
     19      -0.1524      2.00000
     20      -0.0336      2.00000
     21       0.1938      2.00000
     22       0.3700      2.00000
     23       0.5596      2.00000
     24       0.7888      2.00000
     25       9.9215      0.00000
     26      10.4292      0.00000
     27      10.7262      0.00000
     28      11.1341      0.00000
     29      11.4512      0.00000
     30      11.7224      0.00000

 k-point    26 :       0.5000    0.1667    0.4000
  band No.  band energies     occupation 
      1     -17.8165      2.00000
      2     -17.3927      2.00000
      3     -16.8830      2.00000
      4     -16.2667      2.00000
      5     -16.2066      2.00000
      6     -16.1837      2.00000
      7      -7.1810      2.00000
      8      -6.1615      2.00000
      9      -5.3686      2.00000
     10      -4.2385      2.00000
     11      -3.9661      2.00000
     12      -3.8645      2.00000
     13      -2.1457      2.00000
     14      -1.9602      2.00000
     15      -1.4668      2.00000
     16      -1.0915      2.00000
     17      -0.9255      2.00000
     18      -0.5871      2.00000
     19      -0.1580      2.00000
     20       0.0252      2.00000
     21       0.1883      2.00000
     22       0.2976      2.00000
     23       0.5385      2.00000
     24       0.8327      2.00000
     25       9.8645      0.00000
     26      10.5299      0.00000
     27      10.7974      0.00000
     28      11.1237      0.00000
     29      11.3053      0.00000
     30      11.6777      0.00000

 k-point    27 :       0.3333    0.3333    0.4000
  band No.  band energies     occupation 
      1     -17.7808      2.00000
      2     -17.2638      2.00000
      3     -17.0442      2.00000
      4     -16.2773      2.00000
      5     -16.2199      2.00000
      6     -16.1922      2.00000
      7      -6.8660      2.00000
      8      -6.3813      2.00000
      9      -5.4792      2.00000
     10      -4.1798      2.00000
     11      -3.9232      2.00000
     12      -3.9222      2.00000
     13      -2.1840      2.00000
     14      -1.7437      2.00000
     15      -1.7281      2.00000
     16      -0.8855      2.00000
     17      -0.8617      2.00000
     18      -0.8551      2.00000
     19       0.0171      2.00000
     20       0.0336      2.00000
     21       0.1992      2.00000
     22       0.4222      2.00000
     23       0.4440      2.00000
     24       0.6508      2.00000
     25      10.1467      0.00000
     26      10.7005      0.00000
     27      10.9247      0.00000
     28      11.2097      0.00000
     29      11.3129      0.00000
     30      11.3830      0.00000


--------------------------------------------------------------------------------------------------------


 soft charge-density along one line, spin component           1
         0         1         2         3         4         5         6         7         8         9
 total charge-density along one line
 
 pseudopotential strength for first ion, spin component:           1
 18.756   0.002  -0.000   0.000  -0.000   0.000  -0.000   0.000
  0.002   0.006   0.000  -0.000   0.000  -0.000   0.000  -0.000
 -0.000   0.000   4.218   0.001   0.000  -0.003  -0.000  -0.000
  0.000  -0.000   0.001   4.218   0.000  -0.000  -0.003  -0.000
 -0.000   0.000   0.000   0.000   4.218  -0.000  -0.000  -0.003
  0.000  -0.000  -0.003  -0.000  -0.000   0.005   0.000   0.000
 -0.000   0.000  -0.000  -0.003  -0.000   0.000   0.005   0.000
  0.000  -0.000  -0.000  -0.000  -0.003   0.000   0.000   0.005
 total augmentation occupancy for first ion, spin component:           1
  1.167  -1.629   0.000   0.000  -0.005   0.000   0.000   0.025
 -1.629   3.554   0.000   0.000   0.040   0.000   0.000  -0.081
  0.000   0.000   1.030   0.016  -0.000  -1.185  -0.026   0.000
  0.000   0.000   0.016   1.001  -0.000  -0.024  -1.175   0.000
 -0.005   0.040  -0.000  -0.000   0.973   0.000   0.000  -1.173
 -0.000   0.000  -1.185  -0.024   0.000   1.689   0.052  -0.000
  0.000   0.000  -0.026  -1.175   0.000   0.052   1.678  -0.000
  0.025  -0.081   0.000   0.000  -1.173  -0.000  -0.000   1.683


------------------------ aborting loop because EDIFF is reached ----------------------------------------


    CHARGE:  cpu time    0.1098: real time    0.1104
    FORLOC:  cpu time    0.0046: real time    0.0046
    FORNL :  cpu time    0.5024: real time    0.5054
    STRESS:  cpu time    1.5069: real time    1.5165
    FORCOR:  cpu time    0.0339: real time    0.0341
    FORHAR:  cpu time    0.0122: real time    0.0122
    MIXING:  cpu time    0.0022: real time    0.0022
    OFIELD:  cpu time    0.0000: real time    0.0000

  FORCE on cell =-STRESS in cart. coord.  units (eV):
  Direction    XX          YY          ZZ          XY          YZ          ZX
  --------------------------------------------------------------------------------------
  Alpha Z    69.72429    69.72429    69.72429
  Ewald    -646.23789  -646.23789  -594.69999     0.00000     0.00000    -0.00000
  Hartree   347.19839   347.19839   377.16947    -0.00000    -0.00001     0.00002
  E(xc)    -225.65114  -225.65117  -225.58859    -0.00002    -0.00000    -0.00000
  Local    -418.23661  -418.23699  -499.06656    -0.00032     0.00003    -0.00006
  n-local   -51.03401   -51.16550   -51.03212     0.15194    -0.02188    -0.10999
  augment    27.16844    27.16879    27.07555     0.00031    -0.00008     0.00014
  Kinetic   902.77745   903.34621   901.25765    -0.77631    -0.02943     0.06680
  Fock        0.00000     0.00000     0.00000     0.00000     0.00000     0.00000
  -------------------------------------------------------------------------------------
  Total       5.92752     5.92752     4.83970    -0.00000     0.00000    -0.00000
  in kB      84.02451    84.02451    68.60431    -0.00000     0.00000    -0.00000
  external pressure =       78.88 kB  Pullay stress =        0.00 kB


 VOLUME and BASIS-vectors are now :
 -----------------------------------------------------------------------------
  energy-cutoff  :      600.00
  volume of cell :      113.03
      direct lattice vectors                 reciprocal lattice vectors
     4.913800000  0.000000000  0.000000000     0.203508486  0.117495679  0.000000000
    -2.456900000  4.255475629  0.000000000     0.000000000  0.234991359  0.000000000
     0.000000000  0.000000000  5.405200000     0.000000000  0.000000000  0.185007030

  length of vectors
     4.913800000  4.913800000  5.405200000     0.234991359  0.234991359  0.185007030


 FORCES acting on ions
    electron-ion (+dipol)            ewald-force                    non-local-force                 convergence-correction
 -----------------------------------------------------------------------------------------------
   -.119E+01 0.468E-05 -.261E-04   0.812E+00 -.433E-11 0.482E-11   0.822E+00 0.347E-17 0.000E+00   0.232E-03 -.973E-08 0.353E-06
   0.597E+00 0.103E+01 0.895E-06   -.406E+00 -.703E+00 -.746E-13   -.411E+00 -.712E+00 0.000E+00   -.116E-03 -.201E-03 0.202E-10
   0.597E+00 -.103E+01 0.281E-04   -.406E+00 0.703E+00 -.477E-11   -.411E+00 0.712E+00 0.000E+00   -.116E-03 0.201E-03 -.353E-06
   0.723E+02 0.723E+01 0.302E+02   -.907E+02 -.616E+01 -.401E+02   0.179E+02 -.788E+00 0.993E+01   0.306E-02 0.835E-03 0.124E-02
   -.424E+02 -.590E+02 -.302E+02   0.507E+02 0.755E+02 0.401E+02   -.825E+01 -.159E+02 -.993E+01   -.225E-02 -.224E-02 -.124E-02
   0.723E+02 -.723E+01 -.302E+02   -.907E+02 0.616E+01 0.401E+02   0.179E+02 0.788E+00 -.993E+01   0.306E-02 -.835E-03 -.124E-02
   -.299E+02 0.662E+02 -.302E+02   0.400E+02 -.816E+02 0.401E+02   -.962E+01 0.151E+02 -.993E+01   -.809E-03 0.307E-02 -.124E-02
   -.299E+02 -.662E+02 0.302E+02   0.400E+02 0.816E+02 -.401E+02   -.962E+01 -.151E+02 0.993E+01   -.809E-03 -.307E-02 0.124E-02
   -.424E+02 0.590E+02 0.302E+02   0.507E+02 -.755E+02 -.401E+02   -.825E+01 0.159E+02 0.993E+01   -.225E-02 0.224E-02 0.124E-02
 -----------------------------------------------------------------------------------------------
   0.354E-05 -.294E-05 0.246E-05   0.142E-13 -.284E-13 -.497E-13   0.000E+00 0.000E+00 0.000E+00   0.594E-09 0.101E-08 0.475E-10
 
 
 POSITION                                       TOTAL-FORCE (eV/Angst)
 -----------------------------------------------------------------------------------
      2.30850      0.00000      3.60347         0.440096     -0.000000      0.000000
      1.30265      2.25625      0.00000        -0.220048     -0.381134      0.000000
     -1.15425      1.99922      1.80173        -0.220048      0.381134      0.000000
      1.38274      1.13281      4.24633        -0.519724      0.289038      0.070785
      0.78449      3.62439      4.76234         0.009548      0.594613     -0.070785
     -1.07416      3.12267      2.96061        -0.519724     -0.289038     -0.070785
      0.28967      1.76389      1.15887         0.510176     -0.305575     -0.070785
      2.74657      2.49158      0.64286         0.510176      0.305575      0.070785
      3.24139      0.63109      2.44459         0.009548     -0.594613      0.070785
 -----------------------------------------------------------------------------------
    total drift:                                0.000004     -0.000003      0.000002


--------------------------------------------------------------------------------------------------------



  FREE ENERGIE OF THE ION-ELECTRON SYSTEM (eV)
  ---------------------------------------------------
  free  energy   TOTEN  =       -71.01715579 eV

  energy  without entropy=      -71.01715579  energy(sigma->0) =      -71.01715579
 


--------------------------------------------------------------------------------------------------------


    POTLOK:  cpu time    0.0398: real time    0.0400


--------------------------------------------------------------------------------------------------------


     LOOP+:  cpu time   26.3646: real time   28.0291
    4ORBIT:  cpu time    0.0001: real time    0.0004
 BZINTS: Fermi energy:  1.171624; 48.000000 electrons
         Band energy:-275.854732;  BLOECHL correction:  0.000000

 total amount of memory used by VASP MPI-rank0    49476. kBytes
=======================================================================

   base      :      30000. kBytes
   nonlr-proj:        627. kBytes
   fftplans  :       2435. kBytes
   grid      :       3880. kBytes
   one-center:         15. kBytes
   wavefun   :      12519. kBytes
 
  
  
 General timing and accounting informations for this job:
 ========================================================
  
                  Total CPU time used (sec):       28.847
                            User time (sec):       28.652
                          System time (sec):        0.195
                         Elapsed time (sec):       33.252
  
                   Maximum memory used (kb):      203016.
                   Average memory used (kb):           0.
  
                          Minor page faults:         8005
                          Major page faults:          971
                 Voluntary context switches:         4824
