<?xml version="1.0" encoding="ISO-8859-1"?>
<modeling>
 <generator>
  <i name="program" type="string">vasp </i>
  <i name="version" type="string">5.4.4.18Apr17-6-g9f103f2a35  </i>
  <i name="subversion" type="string">(build Jul 15 2019 14:02:39) complex            parallel </i>
  <i name="platform" type="string">TEST </i>
  <i name="date" type="string">2024 09 18 </i>
  <i name="time" type="string">14:38:08 </i>
 </generator>
 <incar>
  <i type="string" name="PREC">normal    ! low/normal/accurate</i>
  <i type="string" name="ALGO"> Fast      ! Algorithm for electronic re</i>
  <i type="int" name="ISPIN">     1</i>
  <i type="int" name="NELMIN">     4</i>
  <i name="EDIFF">      0.00001000</i>
  <i type="int" name="NSW">     0</i>
  <i name="ENCUT">    600.00000000</i>
  <i type="string" name="LREAL"> Auto      ! Projection in reciprocal sp</i>
  <i type="int" name="ISMEAR">    -5</i>
  <i name="SIGMA">      0.20000000</i>
  <i type="logical" name="LWAVE"> F  </i>
  <v type="int" name="KPOINT_BSE">    -1     0     0     0</v>
 </incar>
 <structure name="primitive_cell" >
  <crystal>
   <varray name="basis" >
    <v>       4.91380000       0.00000000       0.00000000 </v>
    <v>      -2.45690000       4.25547563       0.00000000 </v>
    <v>       0.00000000       0.00000000       5.40520000 </v>
   </varray>
   <i name="volume">    113.02573808 </i>
   <varray name="rec_basis" >
    <v>       0.20350849       0.11749568       0.00000000 </v>
    <v>       0.00000000       0.23499136       0.00000000 </v>
    <v>       0.00000000       0.00000000       0.18500703 </v>
   </varray>
  </crystal>
  <varray name="positions" >
   <v>       0.46980000       0.00000000      -0.33333333 </v>
   <v>       0.14830000      -0.26620000      -0.45226667 </v>
   <v>       0.41450000       0.26620000      -0.21440000 </v>
   <v>      -0.26620000       0.14830000       0.45226667 </v>
   <v>      -0.41450000      -0.14830000      -0.11893333 </v>
   <v>       0.00000000       0.46980000       0.33333333 </v>
   <v>      -0.46980000      -0.46980000       0.00000000 </v>
   <v>       0.26620000       0.41450000       0.21440000 </v>
   <v>      -0.14830000      -0.41450000       0.11893333 </v>
  </varray>
 </structure>
 <varray name="primitive_index" >
  <v type="int" >        1 </v>
  <v type="int" >        6 </v>
  <v type="int" >        4 </v>
  <v type="int" >        9 </v>
  <v type="int" >        5 </v>
  <v type="int" >        3 </v>
  <v type="int" >        2 </v>
  <v type="int" >        7 </v>
  <v type="int" >        8 </v>
 </varray>
 <kpoints>
  <generation param="Gamma">
   <v type="int" name="divisions">       6        6        5 </v>
   <v name="usershift">      0.00000000       0.00000000       0.00000000 </v>
   <v name="genvec1">      0.16666667      -0.00000000       0.00000000 </v>
   <v name="genvec2">      0.00000000       0.16666667       0.00000000 </v>
   <v name="genvec3">      0.00000000       0.00000000       0.20000000 </v>
   <v name="shift">      0.00000000       0.00000000       0.00000000 </v>
  </generation>
  <varray name="kpointlist" >
   <v>       0.00000000       0.00000000       0.00000000 </v>
   <v>       0.16666667       0.00000000       0.00000000 </v>
   <v>       0.33333333       0.00000000       0.00000000 </v>
   <v>       0.50000000       0.00000000       0.00000000 </v>
   <v>       0.16666667       0.16666667       0.00000000 </v>
   <v>       0.33333333       0.16666667       0.00000000 </v>
   <v>       0.33333333       0.33333333       0.00000000 </v>
   <v>       0.00000000       0.00000000       0.20000000 </v>
   <v>       0.16666667       0.00000000       0.20000000 </v>
   <v>       0.33333333       0.00000000       0.20000000 </v>
   <v>       0.50000000       0.00000000       0.20000000 </v>
   <v>      -0.33333333       0.00000000       0.20000000 </v>
   <v>      -0.16666667       0.00000000       0.20000000 </v>
   <v>       0.16666667       0.16666667       0.20000000 </v>
   <v>       0.33333333       0.16666667       0.20000000 </v>
   <v>       0.50000000       0.16666667       0.20000000 </v>
   <v>       0.33333333       0.33333333       0.20000000 </v>
   <v>       0.00000000       0.00000000       0.40000000 </v>
   <v>       0.16666667       0.00000000       0.40000000 </v>
   <v>       0.33333333       0.00000000       0.40000000 </v>
   <v>       0.50000000       0.00000000       0.40000000 </v>
   <v>      -0.33333333       0.00000000       0.40000000 </v>
   <v>      -0.16666667       0.00000000       0.40000000 </v>
   <v>       0.16666667       0.16666667       0.40000000 </v>
   <v>       0.33333333       0.16666667       0.40000000 </v>
   <v>       0.50000000       0.16666667       0.40000000 </v>
   <v>       0.33333333       0.33333333       0.40000000 </v>
  </varray>
  <varray name="weights" >
   <v>       0.00555556 </v>
   <v>       0.03333333 </v>
   <v>       0.03333333 </v>
   <v>       0.01666667 </v>
   <v>       0.03333333 </v>
   <v>       0.06666667 </v>
   <v>       0.01111111 </v>
   <v>       0.01111111 </v>
   <v>       0.03333333 </v>
   <v>       0.03333333 </v>
   <v>       0.03333333 </v>
   <v>       0.03333333 </v>
   <v>       0.03333333 </v>
   <v>       0.06666667 </v>
   <v>       0.06666667 </v>
   <v>       0.06666667 </v>
   <v>       0.02222222 </v>
   <v>       0.01111111 </v>
   <v>       0.03333333 </v>
   <v>       0.03333333 </v>
   <v>       0.03333333 </v>
   <v>       0.03333333 </v>
   <v>       0.03333333 </v>
   <v>       0.06666667 </v>
   <v>       0.06666667 </v>
   <v>       0.06666667 </v>
   <v>       0.02222222 </v>
  </varray>
  <varray name="tetrahedronlist"  type="int" >
   <v type="int" >        4        2        2        5       13 </v>
   <v type="int" >        4        1        2        2       13 </v>
   <v type="int" >        4        1        2        8       13 </v>
   <v type="int" >        4        2        5       13       14 </v>
   <v type="int" >        8        2        9       13       14 </v>
   <v type="int" >        8        2        8        9       13 </v>
   <v type="int" >        8        3        5        6       14 </v>
   <v type="int" >        8        2        3        5       14 </v>
   <v type="int" >        4        2        3        9       14 </v>
   <v type="int" >        4        3        6       14       15 </v>
   <v type="int" >        4        3       10       14       15 </v>
   <v type="int" >        4        3        9       10       14 </v>
   <v type="int" >        4        4        6        6       15 </v>
   <v type="int" >        4        3        4        6       15 </v>
   <v type="int" >        4        3        4       10       15 </v>
   <v type="int" >        4        4        6       15       16 </v>
   <v type="int" >        4        4       11       15       16 </v>
   <v type="int" >        4        4       10       11       15 </v>
   <v type="int" >        4        3        5        6       16 </v>
   <v type="int" >        4        3        4        6       16 </v>
   <v type="int" >        4        3        4       11       16 </v>
   <v type="int" >        4        3        5       14       16 </v>
   <v type="int" >        4        3       12       14       16 </v>
   <v type="int" >        4        3       11       12       16 </v>
   <v type="int" >        4        2        2        5       14 </v>
   <v type="int" >        4        2        3       12       14 </v>
   <v type="int" >        4        2        2        9       14 </v>
   <v type="int" >        4        2       12       13       14 </v>
   <v type="int" >        4        1        2        2        9 </v>
   <v type="int" >        4        1        2        9       13 </v>
   <v type="int" >        4        1        8        9       13 </v>
   <v type="int" >        4        3        5        6       12 </v>
   <v type="int" >        4        2        3        5       12 </v>
   <v type="int" >        4        2        5       12       13 </v>
   <v type="int" >        4        5        6       12       16 </v>
   <v type="int" >        4        5       12       14       16 </v>
   <v type="int" >        4        5       12       13       14 </v>
   <v type="int" >        8        6        6        7       16 </v>
   <v type="int" >        4        5        6        6       16 </v>
   <v type="int" >        4        5        6       14       16 </v>
   <v type="int" >        8        6        7       16       17 </v>
   <v type="int" >       16        6       15       16       17 </v>
   <v type="int" >        8        6       14       15       16 </v>
   <v type="int" >        8        6        6        7       17 </v>
   <v type="int" >        8        6        6       15       17 </v>
   <v type="int" >        4        3        5        6       15 </v>
   <v type="int" >        4        5        6        6       15 </v>
   <v type="int" >        4        5        6       15       16 </v>
   <v type="int" >        4        3        5       10       15 </v>
   <v type="int" >        4        5       10       14       15 </v>
   <v type="int" >        4        5       14       15       16 </v>
   <v type="int" >        4        2        3        5       10 </v>
   <v type="int" >        4        2        5       10       14 </v>
   <v type="int" >        4        2        9       10       14 </v>
   <v type="int" >        4        4        6        6       11 </v>
   <v type="int" >        8        3        4        6       11 </v>
   <v type="int" >        4        3        6       11       12 </v>
   <v type="int" >        4        6        6       11       15 </v>
   <v type="int" >        8        6       11       15       16 </v>
   <v type="int" >        4        6       11       12       16 </v>
   <v type="int" >        8        6        6        7       15 </v>
   <v type="int" >        8        6        7       15       16 </v>
   <v type="int" >        8        7       15       16       17 </v>
   <v type="int" >        4        4        6        6       16 </v>
   <v type="int" >        4        4        6       11       16 </v>
   <v type="int" >        4        3        6       11       15 </v>
   <v type="int" >        4        3       10       11       15 </v>
   <v type="int" >        4        3        5        6       10 </v>
   <v type="int" >        4        3        4        6       10 </v>
   <v type="int" >        4        4        6       10       11 </v>
   <v type="int" >        4        5        6       10       14 </v>
   <v type="int" >        4        6       10       14       15 </v>
   <v type="int" >        4        6       10       11       15 </v>
   <v type="int" >        4        5        6        6       14 </v>
   <v type="int" >        4        6        6       14       15 </v>
   <v type="int" >        4        3        6       12       14 </v>
   <v type="int" >        4        6       12       14       16 </v>
   <v type="int" >        4        3        4        6       12 </v>
   <v type="int" >        4        4        6       12       16 </v>
   <v type="int" >        4        4       11       12       16 </v>
   <v type="int" >        4        2        2        5        9 </v>
   <v type="int" >        4        2        3        5        9 </v>
   <v type="int" >        4        3        5        9       10 </v>
   <v type="int" >        4        2        5        9       13 </v>
   <v type="int" >        4        5        9       13       14 </v>
   <v type="int" >        4        5        9       10       14 </v>
   <v type="int" >        4        2        3        5       13 </v>
   <v type="int" >        4        3        5       13       14 </v>
   <v type="int" >        4        3       12       13       14 </v>
   <v type="int" >        4        1        2        2        8 </v>
   <v type="int" >        4        2        2        8        9 </v>
   <v type="int" >        4        9       13       14       23 </v>
   <v type="int" >        4        8        9       13       23 </v>
   <v type="int" >        4        8        9       18       23 </v>
   <v type="int" >        4        9       14       23       24 </v>
   <v type="int" >        4        9       19       23       24 </v>
   <v type="int" >        4        9       18       19       23 </v>
   <v type="int" >        4       10       14       15       24 </v>
   <v type="int" >        4        9       10       14       24 </v>
   <v type="int" >        4        9       10       19       24 </v>
   <v type="int" >        4       10       15       24       25 </v>
   <v type="int" >        4       10       20       24       25 </v>
   <v type="int" >        4       10       19       20       24 </v>
   <v type="int" >        4       11       15       16       25 </v>
   <v type="int" >        4       10       11       15       25 </v>
   <v type="int" >        4       10       11       20       25 </v>
   <v type="int" >        4       11       16       25       26 </v>
   <v type="int" >        4       11       21       25       26 </v>
   <v type="int" >        4       11       20       21       25 </v>
   <v type="int" >        4       12       14       16       26 </v>
   <v type="int" >        4       11       12       16       26 </v>
   <v type="int" >        4       11       12       21       26 </v>
   <v type="int" >        4       12       14       24       26 </v>
   <v type="int" >        4       12       22       24       26 </v>
   <v type="int" >        4       12       21       22       26 </v>
   <v type="int" >        4        9       13       14       24 </v>
   <v type="int" >        4       12       13       14       24 </v>
   <v type="int" >        4       12       13       22       24 </v>
   <v type="int" >        4        9       13       19       24 </v>
   <v type="int" >        4       13       19       23       24 </v>
   <v type="int" >        4       13       22       23       24 </v>
   <v type="int" >        4        8        9       13       19 </v>
   <v type="int" >        4        8       13       19       23 </v>
   <v type="int" >        4        8       18       19       23 </v>
   <v type="int" >        4       12       14       16       22 </v>
   <v type="int" >        4       12       13       14       22 </v>
   <v type="int" >        4       13       14       22       23 </v>
   <v type="int" >        4       14       16       22       26 </v>
   <v type="int" >        4       14       22       24       26 </v>
   <v type="int" >        4       14       22       23       24 </v>
   <v type="int" >        8       15       16       17       26 </v>
   <v type="int" >        4       14       15       16       26 </v>
   <v type="int" >        4       14       15       24       26 </v>
   <v type="int" >        8       15       17       26       27 </v>
   <v type="int" >        8       15       25       26       27 </v>
   <v type="int" >        4       15       24       25       26 </v>
   <v type="int" >        8       15       16       17       27 </v>
   <v type="int" >        8       15       16       25       27 </v>
   <v type="int" >        8       16       25       26       27 </v>
   <v type="int" >        4       10       14       15       25 </v>
   <v type="int" >        4       14       15       16       25 </v>
   <v type="int" >        4       14       16       25       26 </v>
   <v type="int" >        4       10       14       20       25 </v>
   <v type="int" >        4       14       20       24       25 </v>
   <v type="int" >        4       14       24       25       26 </v>
   <v type="int" >        4        9       10       14       20 </v>
   <v type="int" >        4        9       14       20       24 </v>
   <v type="int" >        4        9       19       20       24 </v>
   <v type="int" >        4       11       15       16       21 </v>
   <v type="int" >        4       11       12       16       21 </v>
   <v type="int" >        4       12       16       21       22 </v>
   <v type="int" >        4       15       16       21       25 </v>
   <v type="int" >        4       16       21       25       26 </v>
   <v type="int" >        4       16       21       22       26 </v>
   <v type="int" >        8       15       16       17       25 </v>
   <v type="int" >        8       16       17       25       26 </v>
   <v type="int" >        8       17       25       26       27 </v>
   <v type="int" >        4       11       15       16       26 </v>
   <v type="int" >        4       11       15       21       26 </v>
   <v type="int" >        4       15       21       25       26 </v>
   <v type="int" >        4       10       11       15       21 </v>
   <v type="int" >        4       10       15       21       25 </v>
   <v type="int" >        4       10       20       21       25 </v>
   <v type="int" >        4       10       14       15       20 </v>
   <v type="int" >        4       10       11       15       20 </v>
   <v type="int" >        4       11       15       20       21 </v>
   <v type="int" >        4       14       15       20       24 </v>
   <v type="int" >        4       15       20       24       25 </v>
   <v type="int" >        4       15       20       21       25 </v>
   <v type="int" >        4       12       14       16       24 </v>
   <v type="int" >        4       14       15       16       24 </v>
   <v type="int" >        4       15       16       24       25 </v>
   <v type="int" >        4       12       16       22       24 </v>
   <v type="int" >        4       16       22       24       26 </v>
   <v type="int" >        4       16       24       25       26 </v>
   <v type="int" >        4       11       12       16       22 </v>
   <v type="int" >        4       11       16       22       26 </v>
   <v type="int" >        4       11       21       22       26 </v>
   <v type="int" >        4        9       13       14       19 </v>
   <v type="int" >        4        9       10       14       19 </v>
   <v type="int" >        4       10       14       19       20 </v>
   <v type="int" >        4       13       14       19       23 </v>
   <v type="int" >        4       14       19       23       24 </v>
   <v type="int" >        4       14       19       20       24 </v>
   <v type="int" >        4       12       13       14       23 </v>
   <v type="int" >        4       12       14       23       24 </v>
   <v type="int" >        4       12       22       23       24 </v>
   <v type="int" >        4        8        9       13       18 </v>
   <v type="int" >        4        9       13       18       19 </v>
   <v type="int" >        4       13       18       19       23 </v>
   <v type="int" >        4       19       19       23       24 </v>
   <v type="int" >        4       18       19       19       23 </v>
   <v type="int" >        2       18       18       19       19 </v>
   <v type="int" >        2       19       19       24       24 </v>
   <v type="int" >        4       20       24       24       25 </v>
   <v type="int" >        4       19       20       24       24 </v>
   <v type="int" >        8       19       20       23       24 </v>
   <v type="int" >        8       20       24       25       26 </v>
   <v type="int" >        8       20       22       24       26 </v>
   <v type="int" >        8       20       22       23       24 </v>
   <v type="int" >        8       21       25       26       26 </v>
   <v type="int" >        8       20       21       25       26 </v>
   <v type="int" >        8       20       21       22       26 </v>
   <v type="int" >        4       21       21       25       26 </v>
   <v type="int" >        4       21       21       22       26 </v>
   <v type="int" >        4       22       24       25       26 </v>
   <v type="int" >        4       21       22       25       26 </v>
   <v type="int" >        4       21       21       22       25 </v>
   <v type="int" >        4       22       24       24       25 </v>
   <v type="int" >        4       20       22       24       25 </v>
   <v type="int" >        4       20       21       22       25 </v>
   <v type="int" >        4       19       23       24       24 </v>
   <v type="int" >        4       22       23       24       24 </v>
   <v type="int" >        8       19       23       23       24 </v>
   <v type="int" >        8       18       19       23       23 </v>
   <v type="int" >        4       18       18       19       23 </v>
   <v type="int" >        8       25       25       26       27 </v>
   <v type="int" >        4       24       25       25       26 </v>
   <v type="int" >        2       24       24       25       25 </v>
   <v type="int" >        4       25       25       27       27 </v>
   <v type="int" >        8       25       26       27       27 </v>
   <v type="int" >       16       25       26       26       27 </v>
   <v type="int" >        8       24       25       26       26 </v>
   <v type="int" >        4       22       24       24       26 </v>
   <v type="int" >        4       24       24       25       26 </v>
   <v type="int" >        4       19       20       22       24 </v>
   <v type="int" >        4       19       22       24       24 </v>
   <v type="int" >        4       19       22       23       24 </v>
   <v type="int" >        4       21       25       25       26 </v>
   <v type="int" >        2       21       21       25       25 </v>
   <v type="int" >        4       20       21       21       25 </v>
  </varray>
  <i name="volumeweight">      0.00092593 </i>
 </kpoints>
 <parameters>
  <separator name="general" >
   <i type="string" name="SYSTEM">unknown system</i>
   <i type="logical" name="LCOMPAT"> F  </i>
  </separator>
  <separator name="electronic" >
   <i type="string" name="PREC">normal</i>
   <i name="ENMAX">    600.00000000</i>
   <i name="ENAUG">    605.39200000</i>
   <i name="EDIFF">      0.00001000</i>
   <i type="int" name="IALGO">    68</i>
   <i type="int" name="IWAVPR">    10</i>
   <i type="int" name="NBANDS">    30</i>
   <i name="NELECT">     48.00000000</i>
   <i type="int" name="TURBO">     0</i>
   <i type="int" name="IRESTART">     0</i>
   <i type="int" name="NREBOOT">     0</i>
   <i type="int" name="NMIN">     0</i>
   <i name="EREF">      0.00000000</i>
   <separator name="electronic smearing" >
    <i type="int" name="ISMEAR">    -5</i>
    <i name="SIGMA">      0.20000000</i>
    <i name="KSPACING">      0.50000000</i>
    <i type="logical" name="KGAMMA"> T  </i>
   </separator>
   <separator name="electronic projectors" >
    <i type="logical" name="LREAL"> T  </i>
    <v name="ROPT">     -0.00050000     -0.00050000</v>
    <i type="int" name="LMAXPAW">  -100</i>
    <i type="int" name="LMAXMIX">     2</i>
    <i type="logical" name="NLSPLINE"> F  </i>
   </separator>
   <separator name="electronic startup" >
    <i type="int" name="ISTART">     0</i>
    <i type="int" name="ICHARG">     2</i>
    <i type="int" name="INIWAV">     1</i>
   </separator>
   <separator name="electronic spin" >
    <i type="int" name="ISPIN">     1</i>
    <i type="logical" name="LNONCOLLINEAR"> F  </i>
    <v name="MAGMOM">      1.00000000      1.00000000      1.00000000      1.00000000      1.00000000      1.00000000      1.00000000      1.00000000      1.00000000</v>
    <i name="NUPDOWN">     -1.00000000</i>
    <i type="logical" name="LSORBIT"> F  </i>
    <v name="SAXIS">      0.00000000      0.00000000      1.00000000</v>
    <i type="logical" name="LSPIRAL"> F  </i>
    <v name="QSPIRAL">      0.00000000      0.00000000      0.00000000</v>
    <i type="logical" name="LZEROZ"> F  </i>
   </separator>
   <separator name="electronic exchange-correlation" >
    <i type="logical" name="LASPH"> F  </i>
    <i type="logical" name="LMETAGGA"> F  </i>
   </separator>
   <separator name="electronic convergence" >
    <i type="int" name="NELM">    60</i>
    <i type="int" name="NELMDL">    -5</i>
    <i type="int" name="NELMIN">     4</i>
    <i name="ENINI">    600.00000000</i>
    <separator name="electronic convergence detail" >
     <i type="logical" name="LDIAG"> T  </i>
     <i type="logical" name="LSUBROT"> F  </i>
     <i name="WEIMIN">      0.00000000</i>
     <i name="EBREAK">      0.00000008</i>
     <i name="DEPER">      0.30000000</i>
     <i type="int" name="NRMM">     4</i>
     <i name="TIME">      0.40000000</i>
    </separator>
   </separator>
   <separator name="electronic mixer" >
    <i name="AMIX">      0.40000000</i>
    <i name="BMIX">      1.00000000</i>
    <i name="AMIN">      0.10000000</i>
    <i name="AMIX_MAG">      1.60000000</i>
    <i name="BMIX_MAG">      1.00000000</i>
    <separator name="electronic mixer details" >
     <i type="int" name="IMIX">     4</i>
     <i type="logical" name="MIXFIRST"> F  </i>
     <i type="int" name="MAXMIX">   -45</i>
     <i name="WC">    100.00000000</i>
     <i type="int" name="INIMIX">     1</i>
     <i type="int" name="MIXPRE">     1</i>
     <i type="int" name="MREMOVE">     5</i>
    </separator>
   </separator>
   <separator name="electronic dipolcorrection" >
    <i type="logical" name="LDIPOL"> F  </i>
    <i type="logical" name="LMONO"> F  </i>
    <i type="int" name="IDIPOL">     0</i>
    <i name="EPSILON">      1.00000000</i>
    <v name="DIPOL">   -100.00000000   -100.00000000   -100.00000000</v>
    <i name="EFIELD">      0.00000000</i>
   </separator>
  </separator>
  <separator name="grids" >
   <i type="int" name="NGX">    30</i>
   <i type="int" name="NGY">    30</i>
   <i type="int" name="NGZ">    32</i>
   <i type="int" name="NGXF">    60</i>
   <i type="int" name="NGYF">    60</i>
   <i type="int" name="NGZF">    64</i>
   <i type="logical" name="ADDGRID"> F  </i>
  </separator>
  <separator name="ionic" >
   <i type="int" name="NSW">     0</i>
   <i type="int" name="IBRION">    -1</i>
   <i type="int" name="MDALGO">     0</i>
   <i type="int" name="ISIF">     2</i>
   <i name="PSTRESS">      0.00000000</i>
   <i name="EDIFFG">      0.00010000</i>
   <i type="int" name="NFREE">     0</i>
   <i name="POTIM">      0.50000000</i>
   <i name="SMASS">     -3.00000000</i>
   <i name="SCALEE">      1.00000000</i>
  </separator>
  <separator name="ionic md" >
   <i name="TEBEG">      0.00010000</i>
   <i name="TEEND">      0.00010000</i>
   <i type="int" name="NBLOCK">     1</i>
   <i type="int" name="KBLOCK">     1</i>
   <i type="int" name="NPACO">   256</i>
   <i name="APACO">     16.00000000</i>
  </separator>
  <separator name="symmetry" >
   <i type="int" name="ISYM">     2</i>
   <i name="SYMPREC">      0.00001000</i>
  </separator>
  <separator name="dos" >
   <i type="int" name="LORBIT">     0</i>
   <v name="RWIGS">     -1.00000000     -1.00000000</v>
   <i type="int" name="NEDOS">   301</i>
   <i name="EMIN">     10.00000000</i>
   <i name="EMAX">    -10.00000000</i>
   <i name="EFERMI">      0.00000000</i>
  </separator>
  <separator name="writing" >
   <i type="int" name="NWRITE">     2</i>
   <i type="logical" name="LWAVE"> F  </i>
   <i type="logical" name="LDOWNSAMPLE"> F  </i>
   <i type="logical" name="LCHARG"> T  </i>
   <i type="logical" name="LPARD"> F  </i>
   <i type="logical" name="LVTOT"> F  </i>
   <i type="logical" name="LVHAR"> F  </i>
   <i type="logical" name="LELF"> F  </i>
   <i type="logical" name="LOPTICS"> F  </i>
   <v name="STM">      0.00000000      0.00000000      0.00000000      0.00000000      0.00000000      0.00000000      0.00000000</v>
  </separator>
  <separator name="performance" >
   <i type="int" name="NPAR">     2</i>
   <i type="int" name="NSIM">     4</i>
   <i type="int" name="NBLK">    -1</i>
   <i type="logical" name="LPLANE"> T  </i>
   <i type="logical" name="LSCALAPACK"> T  </i>
   <i type="logical" name="LSCAAWARE"> F  </i>
   <i type="logical" name="LSCALU"> F  </i>
   <i type="logical" name="LASYNC"> F  </i>
   <i type="logical" name="LORBITALREAL"> F  </i>
  </separator>
  <separator name="miscellaneous" >
   <i type="int" name="IDIOT">     3</i>
   <i type="int" name="ISPECIAL">     0</i>
   <i type="logical" name="LMUSIC"> F  </i>
   <v name="POMASS">     28.08500000     16.00000000</v>
   <v name="DARWINR">      0.00000000      0.00000000</v>
   <v name="DARWINV">      1.00000000      1.00000000</v>
   <i type="logical" name="LCORR"> T  </i>
  </separator>
  <i type="logical" name="GGA_COMPAT"> T  </i>
  <i type="logical" name="LBERRY"> F  </i>
  <i type="int" name="ICORELEVEL">     0</i>
  <i type="logical" name="LDAU"> F  </i>
  <i type="int" name="I_CONSTRAINED_M">     0</i>
  <separator name="electronic exchange-correlation" >
   <i type="string" name="GGA">--</i>
   <i type="int" name="VOSKOWN">     0</i>
   <i type="logical" name="LHFCALC"> F  </i>
   <i type="string" name="PRECFOCK"></i>
   <i type="logical" name="LSYMGRAD"> F  </i>
   <i type="logical" name="LHFONE"> F  </i>
   <i type="logical" name="LRHFCALC"> F  </i>
   <i type="logical" name="LTHOMAS"> F  </i>
   <i type="logical" name="LMODELHF"> F  </i>
   <i name="ENCUT4O">     -1.00000000</i>
   <i type="int" name="EXXOEP">     0</i>
   <i type="int" name="FOURORBIT">     0</i>
   <i name="AEXX">      0.00000000</i>
   <i name="HFALPHA">      0.00000000</i>
   <i name="MCALPHA">      0.00000000</i>
   <i name="ALDAX">      1.00000000</i>
   <i name="AGGAX">      1.00000000</i>
   <i name="ALDAC">      1.00000000</i>
   <i name="AGGAC">      1.00000000</i>
   <i type="int" name="NKREDX">     1</i>
   <i type="int" name="NKREDY">     1</i>
   <i type="int" name="NKREDZ">     1</i>
   <i type="logical" name="SHIFTRED"> F  </i>
   <i type="logical" name="ODDONLY"> F  </i>
   <i type="logical" name="EVENONLY"> F  </i>
   <i type="int" name="LMAXFOCK">     0</i>
   <i type="int" name="NMAXFOCKAE">     0</i>
   <i type="logical" name="LFOCKAEDFT"> F  </i>
   <i name="HFSCREEN">      0.00000000</i>
   <i name="HFSCREENC">      0.00000000</i>
   <i type="int" name="NBANDSGWLOW">     0</i>
  </separator>
  <separator name="vdW DFT" >
   <i type="logical" name="LUSE_VDW"> F  </i>
   <i name="Zab_VDW">     -0.84910000</i>
   <i name="PARAM1">      0.12340000</i>
   <i name="PARAM2">      1.00000000</i>
   <i name="PARAM3">      0.00000000</i>
  </separator>
  <separator name="model GW" >
   <i type="int" name="MODEL_GW">     0</i>
   <i name="MODEL_EPS0">      7.53504921</i>
   <i name="MODEL_ALPHA">      1.00000000</i>
  </separator>
  <separator name="linear response parameters" >
   <i type="logical" name="LEPSILON"> F  </i>
   <i type="logical" name="LRPA"> F  </i>
   <i type="logical" name="LNABLA"> F  </i>
   <i type="logical" name="LVEL"> F  </i>
   <i type="int" name="KINTER">     0</i>
   <i name="CSHIFT">      0.10000000</i>
   <i name="OMEGAMAX">     -1.00000000</i>
   <i name="DEG_THRESHOLD">      0.00200000</i>
   <i name="RTIME">     -0.10000000</i>
   <i name="WPLASMAI">      0.00000000</i>
   <v name="DFIELD">      0.00000000      0.00000000      0.00000000</v>
   <v name="WPLASMA">      0.00000000      0.00000000      0.00000000      0.00000000      0.00000000      0.00000000      0.00000000      0.00000000      0.00000000</v>
  </separator>
  <separator name="orbital magnetization" >
   <i type="logical" name="NUCIND"> F  </i>
   <v name="MAGPOS">      0.00000000      0.00000000      0.00000000</v>
   <i type="logical" name="LNICSALL"> T  </i>
   <i type="logical" name="ORBITALMAG"> F  </i>
   <i type="logical" name="LMAGBLOCH"> F  </i>
   <i type="logical" name="LCHIMAG"> F  </i>
   <i type="logical" name="LGAUGE"> T  </i>
   <i type="int" name="MAGATOM">     0</i>
   <v name="MAGDIPOL">      0.00000000      0.00000000      0.00000000</v>
   <v name="AVECCONST">      0.00000000      0.00000000      0.00000000</v>
  </separator>
  <separator name="response functions" >
   <i type="logical" name="LADDER"> F  </i>
   <i type="logical" name="LRPAFORCE"> F  </i>
   <i type="logical" name="LFXC"> F  </i>
   <i type="logical" name="LHARTREE"> T  </i>
   <i type="int" name="IBSE">     0</i>
   <v type="int" name="KPOINT">    -1     0     0     0</v>
   <i type="logical" name="LTCTE"> F  </i>
   <i type="logical" name="LTETE"> F  </i>
   <i type="logical" name="LTRIPLET"> F  </i>
   <i type="logical" name="LFXCEPS"> F  </i>
   <i type="logical" name="LFXHEG"> F  </i>
   <i type="int" name="NATURALO">     2</i>
   <i type="logical" name="L2ORDER"> F  </i>
   <i type="logical" name="LMP2LT"> F  </i>
   <i type="logical" name="LUSEW"> F  </i>
   <i name="ENCUTGW">     -2.00000000</i>
   <i name="ENCUTGWSOFT">     -2.00000000</i>
   <i name="ENCUTLF">     -1.00000000</i>
   <i type="int" name="LMAXMP2">    -1</i>
   <i name="SCISSOR">      0.00000000</i>
   <i type="int" name="NOMEGA">     0</i>
   <i type="int" name="NOMEGAR">     0</i>
   <i type="int" name="NBANDSGW">    -1</i>
   <i type="int" name="NBANDSO">    -1</i>
   <i type="int" name="NBANDSV">    -1</i>
   <i type="int" name="NELM">     1</i>
   <i type="int" name="NELMHF">     1</i>
   <i type="int" name="DIM">     3</i>
   <i type="int" name="ANTIRES">     0</i>
   <i name="OMEGAMAX">    -30.00000000</i>
   <i name="OMEGAMIN">    -30.00000000</i>
   <i name="OMEGATL">   -200.00000000</i>
   <i type="int" name="OMEGAGRID">   140</i>
   <i name="CSHIFT">     -0.10000000</i>
   <i type="logical" name="SELFENERGY"> F  </i>
   <i type="logical" name="LSPECTRAL"> F  </i>
   <i type="logical" name="LSPECTRALGW"> F  </i>
   <i type="logical" name="LSINGLES"> F  </i>
   <i type="logical" name="LFERMIGW"> F  </i>
   <i type="logical" name="ODDONLYGW"> F  </i>
   <i type="logical" name="EVENONLYGW"> F  </i>
   <i type="int" name="NKREDLFX">     1</i>
   <i type="int" name="NKREDLFY">     1</i>
   <i type="int" name="NKREDLFZ">     1</i>
   <i type="int" name="MAXMEM">  2800</i>
   <i type="int" name="TELESCOPE">     0</i>
   <i type="int" name="TAUPAR">     1</i>
   <i type="int" name="OMEGAPAR">    -1</i>
   <i name="LAMBDA">      1.00000000</i>
  </separator>
  <separator name="External order field" >
   <i name="OFIELD_KAPPA">      0.00000000</i>
   <v name="OFIELD_K">      0.00000000      0.00000000      0.00000000</v>
   <i name="OFIELD_Q6_NEAR">      0.00000000</i>
   <i name="OFIELD_Q6_FAR">      0.00000000</i>
   <i name="OFIELD_A">      0.00000000</i>
  </separator>
 </parameters>
 <atominfo>
  <atoms>       9 </atoms>
  <types>       2 </types>
  <array name="atoms" >
   <dimension dim="1">ion</dimension>
   <field type="string">element</field>
   <field type="int">atomtype</field>
   <set>
    <rc><c>Si</c><c>   1</c></rc>
    <rc><c>Si</c><c>   1</c></rc>
    <rc><c>Si</c><c>   1</c></rc>
    <rc><c>O </c><c>   2</c></rc>
    <rc><c>O </c><c>   2</c></rc>
    <rc><c>O </c><c>   2</c></rc>
    <rc><c>O </c><c>   2</c></rc>
    <rc><c>O </c><c>   2</c></rc>
    <rc><c>O </c><c>   2</c></rc>
   </set>
  </array>
  <array name="atomtypes" >
   <dimension dim="1">type</dimension>
   <field type="int">atomspertype</field>
   <field type="string">element</field>
   <field>mass</field>
   <field>valence</field>
   <field type="string">pseudopotential</field>
   <set>
    <rc><c>   3</c><c>Si</c><c>     28.08500000</c><c>      4.00000000</c><c> PAW_PBE Si 05Jan2001                   </c></rc>
    <rc><c>   6</c><c>O </c><c>     16.00000000</c><c>      6.00000000</c><c> PAW_PBE O 08Apr2002                    </c></rc>
   </set>
  </array>
 </atominfo>
 <structure name="initialpos" >
  <crystal>
   <varray name="basis" >
    <v>       4.91380000       0.00000000       0.00000000 </v>
    <v>      -2.45690000       4.25547563       0.00000000 </v>
    <v>       0.00000000       0.00000000       5.40520000 </v>
   </varray>
   <i name="volume">    113.02573808 </i>
   <varray name="rec_basis" >
    <v>       0.20350849       0.11749568       0.00000000 </v>
    <v>       0.00000000       0.23499136       0.00000000 </v>
    <v>       0.00000000       0.00000000       0.18500703 </v>
   </varray>
  </crystal>
  <varray name="positions" >
   <v>       0.46980000       0.00000000       0.66666667 </v>
   <v>       0.53020000       0.53020000       0.00000000 </v>
   <v>       0.00000000       0.46980000       0.33333333 </v>
   <v>       0.41450000       0.26620000       0.78560000 </v>
   <v>       0.58550000       0.85170000       0.88106667 </v>
   <v>       0.14830000       0.73380000       0.54773333 </v>
   <v>       0.26620000       0.41450000       0.21440000 </v>
   <v>       0.85170000       0.58550000       0.11893333 </v>
   <v>       0.73380000       0.14830000       0.45226667 </v>
  </varray>
 </structure>
 <calculation>
  <scstep>
   <time name="dav">    1.76    1.79</time>
   <time name="total">    1.82    2.24</time>
   <energy>
    <i name="alphaZ">     69.72428684 </i>
    <i name="ewald">  -1887.17190222 </i>
    <i name="hartreedc">   -937.16683993 </i>
    <i name="XCdc">    142.01202069 </i>
    <i name="pawpsdc">   1574.92322788 </i>
    <i name="pawaedc">  -1533.24131965 </i>
    <i name="eentropy">      0.00000000 </i>
    <i name="bandstr">     -5.17784360 </i>
    <i name="atom">   2903.37156096 </i>
    <i name="e_fr_energy">    327.27319098 </i>
    <i name="e_wo_entrp">    327.27319098 </i>
    <i name="e_0_energy">    327.27319098 </i>
   </energy>
  </scstep>
  <scstep>
   <time name="dav">    2.13    2.15</time>
   <time name="total">    2.14    2.15</time>
   <energy>
    <i name="e_fr_energy">    -59.17348736 </i>
    <i name="e_wo_entrp">    -59.17348736 </i>
    <i name="e_0_energy">    -59.17348736 </i>
   </energy>
  </scstep>
  <scstep>
   <time name="dav">    1.91    1.92</time>
   <time name="total">    1.91    1.92</time>
   <energy>
    <i name="e_fr_energy">    -80.36264322 </i>
    <i name="e_wo_entrp">    -80.36264322 </i>
    <i name="e_0_energy">    -80.36264322 </i>
   </energy>
  </scstep>
  <scstep>
   <time name="dav">    1.90    1.91</time>
   <time name="total">    1.90    1.91</time>
   <energy>
    <i name="e_fr_energy">    -80.63214771 </i>
    <i name="e_wo_entrp">    -80.63214771 </i>
    <i name="e_0_energy">    -80.63214771 </i>
   </energy>
  </scstep>
  <scstep>
   <time name="dav">    1.86    1.88</time>
   <time name="total">    1.98    2.00</time>
   <energy>
    <i name="e_fr_energy">    -80.63707030 </i>
    <i name="e_wo_entrp">    -80.63707030 </i>
    <i name="e_0_energy">    -80.63707030 </i>
   </energy>
  </scstep>
  <scstep>
   <time name="diag">    0.37    0.38</time>
   <time name="diis">    1.18    1.19</time>
   <time name="orth">    0.03    0.03</time>
   <time name="total">    1.75    1.76</time>
   <energy>
    <i name="e_fr_energy">    -71.02602194 </i>
    <i name="e_wo_entrp">    -71.02602194 </i>
    <i name="e_0_energy">    -71.02602194 </i>
   </energy>
  </scstep>
  <scstep>
   <time name="diag">    0.37    0.37</time>
   <time name="diis">    1.30    1.31</time>
   <time name="orth">    0.03    0.03</time>
   <time name="total">    1.86    1.87</time>
   <energy>
    <i name="e_fr_energy">    -71.00440488 </i>
    <i name="e_wo_entrp">    -71.00440488 </i>
    <i name="e_0_energy">    -71.00440488 </i>
   </energy>
  </scstep>
  <scstep>
   <time name="diag">    0.37    0.37</time>
   <time name="diis">    1.23    1.23</time>
   <time name="orth">    0.03    0.03</time>
   <time name="total">    1.79    1.80</time>
   <energy>
    <i name="e_fr_energy">    -71.02248634 </i>
    <i name="e_wo_entrp">    -71.02248634 </i>
    <i name="e_0_energy">    -71.02248634 </i>
   </energy>
  </scstep>
  <scstep>
   <time name="diag">    0.37    0.38</time>
   <time name="diis">    1.32    1.33</time>
   <time name="orth">    0.03    0.03</time>
   <time name="total">    1.91    1.92</time>
   <energy>
    <i name="e_fr_energy">    -71.01549097 </i>
    <i name="e_wo_entrp">    -71.01549097 </i>
    <i name="e_0_energy">    -71.01549097 </i>
   </energy>
  </scstep>
  <scstep>
   <time name="diag">    0.36    0.36</time>
   <time name="diis">    1.26    1.26</time>
   <time name="orth">    0.03    0.03</time>
   <time name="total">    1.81    1.82</time>
   <energy>
    <i name="e_fr_energy">    -71.01849480 </i>
    <i name="e_wo_entrp">    -71.01849480 </i>
    <i name="e_0_energy">    -71.01849480 </i>
   </energy>
  </scstep>
  <scstep>
   <time name="diag">    0.36    0.37</time>
   <time name="diis">    1.26    1.27</time>
   <time name="orth">    0.03    0.03</time>
   <time name="total">    1.81    1.82</time>
   <energy>
    <i name="e_fr_energy">    -71.01720242 </i>
    <i name="e_wo_entrp">    -71.01720242 </i>
    <i name="e_0_energy">    -71.01720242 </i>
   </energy>
  </scstep>
  <scstep>
   <time name="diag">    0.35    0.35</time>
   <time name="diis">    1.21    1.22</time>
   <time name="orth">    0.03    0.03</time>
   <time name="total">    1.75    1.76</time>
   <energy>
    <i name="e_fr_energy">    -71.01715403 </i>
    <i name="e_wo_entrp">    -71.01715403 </i>
    <i name="e_0_energy">    -71.01715403 </i>
   </energy>
  </scstep>
  <scstep>
   <time name="diag">    0.34    0.35</time>
   <time name="diis">    0.89    0.90</time>
   <time name="orth">    0.03    0.03</time>
   <time name="total">    1.31    1.32</time>
   <energy>
    <i name="alphaZ">     69.72428684 </i>
    <i name="ewald">  -1887.17190222 </i>
    <i name="hartreedc">  -1071.51666195 </i>
    <i name="XCdc">    151.13008353 </i>
    <i name="pawpsdc">   2051.52775284 </i>
    <i name="pawaedc">  -2012.22754430 </i>
    <i name="eentropy">      0.00000000 </i>
    <i name="bandstr">   -275.85473150 </i>
    <i name="atom">   2903.37156096 </i>
    <i name="e_fr_energy">    -71.01715579 </i>
    <i name="e_wo_entrp">    -71.01715579 </i>
    <i name="e_0_energy">    -71.01715579 </i>
   </energy>
  </scstep>
  <structure>
   <crystal>
    <varray name="basis" >
     <v>       4.91380000       0.00000000       0.00000000 </v>
     <v>      -2.45690000       4.25547563       0.00000000 </v>
     <v>       0.00000000       0.00000000       5.40520000 </v>
    </varray>
    <i name="volume">    113.02573808 </i>
    <varray name="rec_basis" >
     <v>       0.20350849       0.11749568       0.00000000 </v>
     <v>       0.00000000       0.23499136       0.00000000 </v>
     <v>       0.00000000       0.00000000       0.18500703 </v>
    </varray>
   </crystal>
   <varray name="positions" >
    <v>       0.46980000       0.00000000       0.66666667 </v>
    <v>       0.53020000       0.53020000       0.00000000 </v>
    <v>       0.00000000       0.46980000       0.33333333 </v>
    <v>       0.41450000       0.26620000       0.78560000 </v>
    <v>       0.58550000       0.85170000       0.88106667 </v>
    <v>       0.14830000       0.73380000       0.54773333 </v>
    <v>       0.26620000       0.41450000       0.21440000 </v>
    <v>       0.85170000       0.58550000       0.11893333 </v>
    <v>       0.73380000       0.14830000       0.45226667 </v>
   </varray>
  </structure>
  <varray name="forces" >
   <v>       0.44009582      -0.00000000       0.00000000 </v>
   <v>      -0.22004791      -0.38113416       0.00000000 </v>
   <v>      -0.22004791       0.38113416       0.00000000 </v>
   <v>      -0.51972416       0.28903777       0.07078544 </v>
   <v>       0.00954803       0.59461321      -0.07078544 </v>
   <v>      -0.51972416      -0.28903777      -0.07078544 </v>
   <v>       0.51017613      -0.30557544      -0.07078544 </v>
   <v>       0.51017613       0.30557544       0.07078544 </v>
   <v>       0.00954803      -0.59461321       0.07078544 </v>
  </varray>
  <varray name="stress" >
   <v>      84.02451029      -0.00000000      -0.00000000 </v>
   <v>      -0.00000000      84.02451029       0.00000000 </v>
   <v>       0.00000000       0.00000000      68.60431073 </v>
  </varray>
  <energy>
   <i name="e_fr_energy">    -71.01715579 </i>
   <i name="e_wo_entrp">    -71.01715579 </i>
   <i name="e_0_energy">      0.00000000 </i>
  </energy>
  <time name="totalsc">   26.36   28.03</time>
  <eigenvalues>
   <array>
    <dimension dim="1">band</dimension>
    <dimension dim="2">kpoint</dimension>
    <dimension dim="3">spin</dimension>
    <field>eigene</field>
    <field>occ</field>
    <set>
     <set comment="spin 1">
      <set comment="kpoint 1">
       <r>  -18.3728    1.0000 </r>
       <r>  -16.8361    1.0000 </r>
       <r>  -16.8361    1.0000 </r>
       <r>  -16.2015    1.0000 </r>
       <r>  -16.1535    1.0000 </r>
       <r>  -16.1535    1.0000 </r>
       <r>   -7.1738    1.0000 </r>
       <r>   -7.1738    1.0000 </r>
       <r>   -4.3333    1.0000 </r>
       <r>   -4.3273    1.0000 </r>
       <r>   -4.1750    1.0000 </r>
       <r>   -4.1750    1.0000 </r>
       <r>   -1.8573    1.0000 </r>
       <r>   -1.8573    1.0000 </r>
       <r>   -1.6199    1.0000 </r>
       <r>   -1.3598    1.0000 </r>
       <r>   -0.4086    1.0000 </r>
       <r>   -0.4086    1.0000 </r>
       <r>   -0.3908    1.0000 </r>
       <r>    0.1122    1.0000 </r>
       <r>    0.1122    1.0000 </r>
       <r>    0.4215    1.0000 </r>
       <r>    0.7620    1.0000 </r>
       <r>    0.7620    1.0000 </r>
       <r>    7.1206    0.0000 </r>
       <r>   10.3982    0.0000 </r>
       <r>   10.3982    0.0000 </r>
       <r>   10.8998    0.0000 </r>
       <r>   10.8998    0.0000 </r>
       <r>   12.5169    0.0000 </r>
      </set>
      <set comment="kpoint 2">
       <r>  -18.2913    1.0000 </r>
       <r>  -16.9304    1.0000 </r>
       <r>  -16.8242    1.0000 </r>
       <r>  -16.2211    1.0000 </r>
       <r>  -16.1706    1.0000 </r>
       <r>  -16.1600    1.0000 </r>
       <r>   -7.2114    1.0000 </r>
       <r>   -6.9922    1.0000 </r>
       <r>   -4.3733    1.0000 </r>
       <r>   -4.3474    1.0000 </r>
       <r>   -4.2759    1.0000 </r>
       <r>   -4.0145    1.0000 </r>
       <r>   -1.9825    1.0000 </r>
       <r>   -1.7975    1.0000 </r>
       <r>   -1.5898    1.0000 </r>
       <r>   -1.1934    1.0000 </r>
       <r>   -0.6823    1.0000 </r>
       <r>   -0.4476    1.0000 </r>
       <r>   -0.4023    1.0000 </r>
       <r>    0.0494    1.0000 </r>
       <r>    0.1022    1.0000 </r>
       <r>    0.3192    1.0000 </r>
       <r>    0.8253    1.0000 </r>
       <r>    0.8590    1.0000 </r>
       <r>    7.5427    0.0000 </r>
       <r>   10.3847    0.0000 </r>
       <r>   10.4449    0.0000 </r>
       <r>   10.9348    0.0000 </r>
       <r>   11.0433    0.0000 </r>
       <r>   12.3646    0.0000 </r>
      </set>
      <set comment="kpoint 3">
       <r>  -18.0724    1.0000 </r>
       <r>  -17.1896    1.0000 </r>
       <r>  -16.7987    1.0000 </r>
       <r>  -16.2442    1.0000 </r>
       <r>  -16.1990    1.0000 </r>
       <r>  -16.1790    1.0000 </r>
       <r>   -7.2830    1.0000 </r>
       <r>   -6.5726    1.0000 </r>
       <r>   -4.6294    1.0000 </r>
       <r>   -4.3811    1.0000 </r>
       <r>   -4.2992    1.0000 </r>
       <r>   -3.7121    1.0000 </r>
       <r>   -2.0651    1.0000 </r>
       <r>   -1.6892    1.0000 </r>
       <r>   -1.5646    1.0000 </r>
       <r>   -1.1974    1.0000 </r>
       <r>   -0.9983    1.0000 </r>
       <r>   -0.5789    1.0000 </r>
       <r>   -0.4871    1.0000 </r>
       <r>   -0.0018    1.0000 </r>
       <r>    0.0675    1.0000 </r>
       <r>    0.2704    1.0000 </r>
       <r>    0.8532    1.0000 </r>
       <r>    1.0025    1.0000 </r>
       <r>    8.5416    0.0000 </r>
       <r>   10.4281    0.0000 </r>
       <r>   10.5551    0.0000 </r>
       <r>   11.0557    0.0000 </r>
       <r>   11.3938    0.0000 </r>
       <r>   11.7508    0.0000 </r>
      </set>
      <set comment="kpoint 4">
       <r>  -17.8829    1.0000 </r>
       <r>  -17.4041    1.0000 </r>
       <r>  -16.7850    1.0000 </r>
       <r>  -16.2501    1.0000 </r>
       <r>  -16.2117    1.0000 </r>
       <r>  -16.1906    1.0000 </r>
       <r>   -7.3173    1.0000 </r>
       <r>   -6.3103    1.0000 </r>
       <r>   -4.8176    1.0000 </r>
       <r>   -4.3583    1.0000 </r>
       <r>   -4.3273    1.0000 </r>
       <r>   -3.5463    1.0000 </r>
       <r>   -1.9931    1.0000 </r>
       <r>   -1.8265    1.0000 </r>
       <r>   -1.5957    1.0000 </r>
       <r>   -1.2145    1.0000 </r>
       <r>   -1.0063    1.0000 </r>
       <r>   -0.6619    1.0000 </r>
       <r>   -0.5945    1.0000 </r>
       <r>   -0.0048    1.0000 </r>
       <r>    0.0604    1.0000 </r>
       <r>    0.3010    1.0000 </r>
       <r>    0.8363    1.0000 </r>
       <r>    1.0602    1.0000 </r>
       <r>    9.3789    0.0000 </r>
       <r>   10.1166    0.0000 </r>
       <r>   10.8429    0.0000 </r>
       <r>   10.8438    0.0000 </r>
       <r>   11.6222    0.0000 </r>
       <r>   11.6967    0.0000 </r>
      </set>
      <set comment="kpoint 5">
       <r>  -18.1386    1.0000 </r>
       <r>  -17.1062    1.0000 </r>
       <r>  -16.8127    1.0000 </r>
       <r>  -16.2390    1.0000 </r>
       <r>  -16.1959    1.0000 </r>
       <r>  -16.1695    1.0000 </r>
       <r>   -7.2755    1.0000 </r>
       <r>   -6.6663    1.0000 </r>
       <r>   -4.6371    1.0000 </r>
       <r>   -4.3661    1.0000 </r>
       <r>   -4.2240    1.0000 </r>
       <r>   -3.8016    1.0000 </r>
       <r>   -2.0320    1.0000 </r>
       <r>   -1.7845    1.0000 </r>
       <r>   -1.4849    1.0000 </r>
       <r>   -1.0848    1.0000 </r>
       <r>   -1.0771    1.0000 </r>
       <r>   -0.5575    1.0000 </r>
       <r>   -0.3596    1.0000 </r>
       <r>   -0.1281    1.0000 </r>
       <r>    0.1850    1.0000 </r>
       <r>    0.2303    1.0000 </r>
       <r>    0.8442    1.0000 </r>
       <r>    0.9800    1.0000 </r>
       <r>    8.2503    0.0000 </r>
       <r>   10.4273    0.0000 </r>
       <r>   10.5690    0.0000 </r>
       <r>   11.0520    0.0000 </r>
       <r>   11.2223    0.0000 </r>
       <r>   11.9616    0.0000 </r>
      </set>
      <set comment="kpoint 6">
       <r>  -17.8897    1.0000 </r>
       <r>  -17.3847    1.0000 </r>
       <r>  -16.8049    1.0000 </r>
       <r>  -16.2474    1.0000 </r>
       <r>  -16.2100    1.0000 </r>
       <r>  -16.1878    1.0000 </r>
       <r>   -7.3406    1.0000 </r>
       <r>   -6.2102    1.0000 </r>
       <r>   -5.0366    1.0000 </r>
       <r>   -4.3182    1.0000 </r>
       <r>   -4.2264    1.0000 </r>
       <r>   -3.5541    1.0000 </r>
       <r>   -1.9813    1.0000 </r>
       <r>   -1.7822    1.0000 </r>
       <r>   -1.6558    1.0000 </r>
       <r>   -1.1617    1.0000 </r>
       <r>   -0.9993    1.0000 </r>
       <r>   -0.6929    1.0000 </r>
       <r>   -0.5046    1.0000 </r>
       <r>   -0.1863    1.0000 </r>
       <r>    0.0330    1.0000 </r>
       <r>    0.4254    1.0000 </r>
       <r>    0.8027    1.0000 </r>
       <r>    1.0716    1.0000 </r>
       <r>    9.2668    0.0000 </r>
       <r>   10.3663    0.0000 </r>
       <r>   10.6831    0.0000 </r>
       <r>   11.0866    0.0000 </r>
       <r>   11.4957    0.0000 </r>
       <r>   11.7048    0.0000 </r>
      </set>
      <set comment="kpoint 7">
       <r>  -17.6377    1.0000 </r>
       <r>  -17.6377    1.0000 </r>
       <r>  -16.8190    1.0000 </r>
       <r>  -16.2463    1.0000 </r>
       <r>  -16.2021    1.0000 </r>
       <r>  -16.2021    1.0000 </r>
       <r>   -7.3783    1.0000 </r>
       <r>   -5.6395    1.0000 </r>
       <r>   -5.6395    1.0000 </r>
       <r>   -4.2356    1.0000 </r>
       <r>   -4.2356    1.0000 </r>
       <r>   -3.4597    1.0000 </r>
       <r>   -1.8516    1.0000 </r>
       <r>   -1.8516    1.0000 </r>
       <r>   -1.8008    1.0000 </r>
       <r>   -0.9746    1.0000 </r>
       <r>   -0.9745    1.0000 </r>
       <r>   -0.8185    1.0000 </r>
       <r>   -0.6218    1.0000 </r>
       <r>   -0.1438    1.0000 </r>
       <r>   -0.1438    1.0000 </r>
       <r>    0.6611    1.0000 </r>
       <r>    0.6611    1.0000 </r>
       <r>    1.1027    1.0000 </r>
       <r>   10.0505    0.0000 </r>
       <r>   10.0505    0.0000 </r>
       <r>   10.5388    0.0000 </r>
       <r>   11.4714    0.0000 </r>
       <r>   11.6173    0.0000 </r>
       <r>   11.7845    0.0000 </r>
      </set>
      <set comment="kpoint 8">
       <r>  -18.2943    1.0000 </r>
       <r>  -17.2851    1.0000 </r>
       <r>  -16.4516    1.0000 </r>
       <r>  -16.1992    1.0000 </r>
       <r>  -16.1692    1.0000 </r>
       <r>  -16.1384    1.0000 </r>
       <r>   -7.8468    1.0000 </r>
       <r>   -6.3465    1.0000 </r>
       <r>   -4.4930    1.0000 </r>
       <r>   -4.4165    1.0000 </r>
       <r>   -4.3676    1.0000 </r>
       <r>   -3.8697    1.0000 </r>
       <r>   -1.9413    1.0000 </r>
       <r>   -1.6627    1.0000 </r>
       <r>   -1.5618    1.0000 </r>
       <r>   -1.2298    1.0000 </r>
       <r>   -0.6020    1.0000 </r>
       <r>   -0.4809    1.0000 </r>
       <r>   -0.4208    1.0000 </r>
       <r>   -0.2811    1.0000 </r>
       <r>    0.0804    1.0000 </r>
       <r>    0.5220    1.0000 </r>
       <r>    0.8125    1.0000 </r>
       <r>    0.9720    1.0000 </r>
       <r>    7.5147    0.0000 </r>
       <r>   10.2548    0.0000 </r>
       <r>   10.4195    0.0000 </r>
       <r>   10.5212    0.0000 </r>
       <r>   11.2230    0.0000 </r>
       <r>   12.1641    0.0000 </r>
      </set>
      <set comment="kpoint 9">
       <r>  -18.2171    1.0000 </r>
       <r>  -17.2843    1.0000 </r>
       <r>  -16.5348    1.0000 </r>
       <r>  -16.2142    1.0000 </r>
       <r>  -16.1883    1.0000 </r>
       <r>  -16.1497    1.0000 </r>
       <r>   -7.7019    1.0000 </r>
       <r>   -6.3547    1.0000 </r>
       <r>   -4.6713    1.0000 </r>
       <r>   -4.3747    1.0000 </r>
       <r>   -4.1783    1.0000 </r>
       <r>   -3.9193    1.0000 </r>
       <r>   -2.0415    1.0000 </r>
       <r>   -1.6468    1.0000 </r>
       <r>   -1.5259    1.0000 </r>
       <r>   -1.1521    1.0000 </r>
       <r>   -0.8316    1.0000 </r>
       <r>   -0.4951    1.0000 </r>
       <r>   -0.3918    1.0000 </r>
       <r>   -0.2371    1.0000 </r>
       <r>    0.1633    1.0000 </r>
       <r>    0.4181    1.0000 </r>
       <r>    0.7539    1.0000 </r>
       <r>    1.0136    1.0000 </r>
       <r>    7.8907    0.0000 </r>
       <r>   10.2687    0.0000 </r>
       <r>   10.5110    0.0000 </r>
       <r>   10.6057    0.0000 </r>
       <r>   11.2981    0.0000 </r>
       <r>   11.9852    0.0000 </r>
      </set>
      <set comment="kpoint 10">
       <r>  -18.0154    1.0000 </r>
       <r>  -17.3244    1.0000 </r>
       <r>  -16.7210    1.0000 </r>
       <r>  -16.2417    1.0000 </r>
       <r>  -16.2145    1.0000 </r>
       <r>  -16.1693    1.0000 </r>
       <r>   -7.4087    1.0000 </r>
       <r>   -6.3265    1.0000 </r>
       <r>   -4.9064    1.0000 </r>
       <r>   -4.3334    1.0000 </r>
       <r>   -4.0973    1.0000 </r>
       <r>   -3.8231    1.0000 </r>
       <r>   -2.1367    1.0000 </r>
       <r>   -1.7094    1.0000 </r>
       <r>   -1.4722    1.0000 </r>
       <r>   -1.2093    1.0000 </r>
       <r>   -0.8935    1.0000 </r>
       <r>   -0.6001    1.0000 </r>
       <r>   -0.4893    1.0000 </r>
       <r>   -0.0520    1.0000 </r>
       <r>    0.1629    1.0000 </r>
       <r>    0.2825    1.0000 </r>
       <r>    0.7965    1.0000 </r>
       <r>    0.9689    1.0000 </r>
       <r>    8.8065    0.0000 </r>
       <r>   10.3205    0.0000 </r>
       <r>   10.5728    0.0000 </r>
       <r>   11.0322    0.0000 </r>
       <r>   11.4058    0.0000 </r>
       <r>   11.6570    0.0000 </r>
      </set>
      <set comment="kpoint 11">
       <r>  -17.8605    1.0000 </r>
       <r>  -17.3931    1.0000 </r>
       <r>  -16.8316    1.0000 </r>
       <r>  -16.2505    1.0000 </r>
       <r>  -16.2162    1.0000 </r>
       <r>  -16.1818    1.0000 </r>
       <r>   -7.2697    1.0000 </r>
       <r>   -6.2711    1.0000 </r>
       <r>   -5.0420    1.0000 </r>
       <r>   -4.3549    1.0000 </r>
       <r>   -4.1028    1.0000 </r>
       <r>   -3.6696    1.0000 </r>
       <r>   -2.0451    1.0000 </r>
       <r>   -1.9441    1.0000 </r>
       <r>   -1.4687    1.0000 </r>
       <r>   -1.2594    1.0000 </r>
       <r>   -0.8430    1.0000 </r>
       <r>   -0.7231    1.0000 </r>
       <r>   -0.4188    1.0000 </r>
       <r>   -0.0708    1.0000 </r>
       <r>    0.1421    1.0000 </r>
       <r>    0.3348    1.0000 </r>
       <r>    0.7234    1.0000 </r>
       <r>    0.9995    1.0000 </r>
       <r>    9.5722    0.0000 </r>
       <r>   10.1824    0.0000 </r>
       <r>   10.6864    0.0000 </r>
       <r>   11.1577    0.0000 </r>
       <r>   11.5840    0.0000 </r>
       <r>   11.7560    0.0000 </r>
      </set>
      <set comment="kpoint 12">
       <r>  -18.0190    1.0000 </r>
       <r>  -17.3042    1.0000 </r>
       <r>  -16.7545    1.0000 </r>
       <r>  -16.2338    1.0000 </r>
       <r>  -16.1935    1.0000 </r>
       <r>  -16.1807    1.0000 </r>
       <r>   -7.4123    1.0000 </r>
       <r>   -6.3279    1.0000 </r>
       <r>   -4.9080    1.0000 </r>
       <r>   -4.3726    1.0000 </r>
       <r>   -4.0742    1.0000 </r>
       <r>   -3.7736    1.0000 </r>
       <r>   -2.0724    1.0000 </r>
       <r>   -1.7009    1.0000 </r>
       <r>   -1.5253    1.0000 </r>
       <r>   -1.3878    1.0000 </r>
       <r>   -0.9230    1.0000 </r>
       <r>   -0.4986    1.0000 </r>
       <r>   -0.3452    1.0000 </r>
       <r>   -0.0880    1.0000 </r>
       <r>    0.0649    1.0000 </r>
       <r>    0.3964    1.0000 </r>
       <r>    0.6386    1.0000 </r>
       <r>    1.0624    1.0000 </r>
       <r>    8.7727    0.0000 </r>
       <r>   10.3804    0.0000 </r>
       <r>   10.7665    0.0000 </r>
       <r>   11.1728    0.0000 </r>
       <r>   11.3655    0.0000 </r>
       <r>   11.6883    0.0000 </r>
      </set>
      <set comment="kpoint 13">
       <r>  -18.2177    1.0000 </r>
       <r>  -17.2802    1.0000 </r>
       <r>  -16.5460    1.0000 </r>
       <r>  -16.2128    1.0000 </r>
       <r>  -16.1778    1.0000 </r>
       <r>  -16.1537    1.0000 </r>
       <r>   -7.7029    1.0000 </r>
       <r>   -6.3548    1.0000 </r>
       <r>   -4.6755    1.0000 </r>
       <r>   -4.3759    1.0000 </r>
       <r>   -4.1926    1.0000 </r>
       <r>   -3.8907    1.0000 </r>
       <r>   -2.0148    1.0000 </r>
       <r>   -1.6640    1.0000 </r>
       <r>   -1.5205    1.0000 </r>
       <r>   -1.2029    1.0000 </r>
       <r>   -0.8748    1.0000 </r>
       <r>   -0.4098    1.0000 </r>
       <r>   -0.3807    1.0000 </r>
       <r>   -0.2575    1.0000 </r>
       <r>    0.1935    1.0000 </r>
       <r>    0.3795    1.0000 </r>
       <r>    0.7284    1.0000 </r>
       <r>    1.0432    1.0000 </r>
       <r>    7.8809    0.0000 </r>
       <r>   10.3073    0.0000 </r>
       <r>   10.5363    0.0000 </r>
       <r>   10.6551    0.0000 </r>
       <r>   11.2311    0.0000 </r>
       <r>   12.0294    0.0000 </r>
      </set>
      <set comment="kpoint 14">
       <r>  -18.0763    1.0000 </r>
       <r>  -17.2970    1.0000 </r>
       <r>  -16.6879    1.0000 </r>
       <r>  -16.2300    1.0000 </r>
       <r>  -16.2046    1.0000 </r>
       <r>  -16.1662    1.0000 </r>
       <r>   -7.4850    1.0000 </r>
       <r>   -6.3285    1.0000 </r>
       <r>   -4.8850    1.0000 </r>
       <r>   -4.3396    1.0000 </r>
       <r>   -4.0703    1.0000 </r>
       <r>   -3.8587    1.0000 </r>
       <r>   -2.0936    1.0000 </r>
       <r>   -1.6471    1.0000 </r>
       <r>   -1.5286    1.0000 </r>
       <r>   -1.2563    1.0000 </r>
       <r>   -0.9411    1.0000 </r>
       <r>   -0.4917    1.0000 </r>
       <r>   -0.4102    1.0000 </r>
       <r>   -0.1294    1.0000 </r>
       <r>    0.1798    1.0000 </r>
       <r>    0.3104    1.0000 </r>
       <r>    0.7143    1.0000 </r>
       <r>    1.0313    1.0000 </r>
       <r>    8.5216    0.0000 </r>
       <r>   10.3269    0.0000 </r>
       <r>   10.7368    0.0000 </r>
       <r>   10.8865    0.0000 </r>
       <r>   11.3513    0.0000 </r>
       <r>   11.7133    0.0000 </r>
      </set>
      <set comment="kpoint 15">
       <r>  -17.8622    1.0000 </r>
       <r>  -17.3913    1.0000 </r>
       <r>  -16.8283    1.0000 </r>
       <r>  -16.2491    1.0000 </r>
       <r>  -16.2247    1.0000 </r>
       <r>  -16.1784    1.0000 </r>
       <r>   -7.2829    1.0000 </r>
       <r>   -6.1874    1.0000 </r>
       <r>   -5.1835    1.0000 </r>
       <r>   -4.3176    1.0000 </r>
       <r>   -4.0703    1.0000 </r>
       <r>   -3.6879    1.0000 </r>
       <r>   -2.0895    1.0000 </r>
       <r>   -1.8119    1.0000 </r>
       <r>   -1.5859    1.0000 </r>
       <r>   -1.1294    1.0000 </r>
       <r>   -0.8967    1.0000 </r>
       <r>   -0.7044    1.0000 </r>
       <r>   -0.4182    1.0000 </r>
       <r>   -0.1355    1.0000 </r>
       <r>    0.1245    1.0000 </r>
       <r>    0.3770    1.0000 </r>
       <r>    0.7409    1.0000 </r>
       <r>    0.9736    1.0000 </r>
       <r>    9.4559    0.0000 </r>
       <r>   10.4450    0.0000 </r>
       <r>   10.6049    0.0000 </r>
       <r>   11.2071    0.0000 </r>
       <r>   11.4087    0.0000 </r>
       <r>   11.6754    0.0000 </r>
      </set>
      <set comment="kpoint 16">
       <r>  -17.8649    1.0000 </r>
       <r>  -17.3819    1.0000 </r>
       <r>  -16.8401    1.0000 </r>
       <r>  -16.2442    1.0000 </r>
       <r>  -16.2233    1.0000 </r>
       <r>  -16.1794    1.0000 </r>
       <r>   -7.2841    1.0000 </r>
       <r>   -6.1886    1.0000 </r>
       <r>   -5.1831    1.0000 </r>
       <r>   -4.3270    1.0000 </r>
       <r>   -4.0641    1.0000 </r>
       <r>   -3.6731    1.0000 </r>
       <r>   -2.0537    1.0000 </r>
       <r>   -1.8386    1.0000 </r>
       <r>   -1.6042    1.0000 </r>
       <r>   -1.1831    1.0000 </r>
       <r>   -0.9088    1.0000 </r>
       <r>   -0.6702    1.0000 </r>
       <r>   -0.3206    1.0000 </r>
       <r>   -0.1835    1.0000 </r>
       <r>    0.0749    1.0000 </r>
       <r>    0.4585    1.0000 </r>
       <r>    0.6541    1.0000 </r>
       <r>    1.0098    1.0000 </r>
       <r>    9.4455    0.0000 </r>
       <r>   10.3539    0.0000 </r>
       <r>   10.9106    0.0000 </r>
       <r>   11.0661    0.0000 </r>
       <r>   11.5027    0.0000 </r>
       <r>   11.8395    0.0000 </r>
      </set>
      <set comment="kpoint 17">
       <r>  -17.7370    1.0000 </r>
       <r>  -17.4755    1.0000 </r>
       <r>  -16.8789    1.0000 </r>
       <r>  -16.2436    1.0000 </r>
       <r>  -16.2410    1.0000 </r>
       <r>  -16.1817    1.0000 </r>
       <r>   -7.2383    1.0000 </r>
       <r>   -5.9321    1.0000 </r>
       <r>   -5.5157    1.0000 </r>
       <r>   -4.2951    1.0000 </r>
       <r>   -4.0598    1.0000 </r>
       <r>   -3.6150    1.0000 </r>
       <r>   -2.0575    1.0000 </r>
       <r>   -1.7538    1.0000 </r>
       <r>   -1.7505    1.0000 </r>
       <r>   -0.9654    1.0000 </r>
       <r>   -0.9095    1.0000 </r>
       <r>   -0.8430    1.0000 </r>
       <r>   -0.3606    1.0000 </r>
       <r>   -0.2049    1.0000 </r>
       <r>    0.0292    1.0000 </r>
       <r>    0.5765    1.0000 </r>
       <r>    0.6222    1.0000 </r>
       <r>    0.9687    1.0000 </r>
       <r>   10.0545    0.0000 </r>
       <r>   10.2551    0.0000 </r>
       <r>   10.6646    0.0000 </r>
       <r>   11.3735    0.0000 </r>
       <r>   11.4368    0.0000 </r>
       <r>   11.5267    0.0000 </r>
      </set>
      <set comment="kpoint 18">
       <r>  -18.0671    1.0000 </r>
       <r>  -17.7163    1.0000 </r>
       <r>  -16.2246    1.0000 </r>
       <r>  -16.1926    1.0000 </r>
       <r>  -16.1825    1.0000 </r>
       <r>  -16.1290    1.0000 </r>
       <r>   -8.2272    1.0000 </r>
       <r>   -5.5280    1.0000 </r>
       <r>   -4.8783    1.0000 </r>
       <r>   -4.5316    1.0000 </r>
       <r>   -4.4994    1.0000 </r>
       <r>   -3.6300    1.0000 </r>
       <r>   -1.7835    1.0000 </r>
       <r>   -1.5529    1.0000 </r>
       <r>   -1.5103    1.0000 </r>
       <r>   -1.0201    1.0000 </r>
       <r>   -0.8429    1.0000 </r>
       <r>   -0.7444    1.0000 </r>
       <r>   -0.6336    1.0000 </r>
       <r>   -0.4569    1.0000 </r>
       <r>   -0.0895    1.0000 </r>
       <r>    0.7665    1.0000 </r>
       <r>    0.9823    1.0000 </r>
       <r>    0.9832    1.0000 </r>
       <r>    8.4960    0.0000 </r>
       <r>    9.6473    0.0000 </r>
       <r>   10.2002    0.0000 </r>
       <r>   10.5272    0.0000 </r>
       <r>   11.2518    0.0000 </r>
       <r>   11.6935    0.0000 </r>
      </set>
      <set comment="kpoint 19">
       <r>  -18.0052    1.0000 </r>
       <r>  -17.6747    1.0000 </r>
       <r>  -16.3458    1.0000 </r>
       <r>  -16.2138    1.0000 </r>
       <r>  -16.1903    1.0000 </r>
       <r>  -16.1434    1.0000 </r>
       <r>   -8.0274    1.0000 </r>
       <r>   -5.6325    1.0000 </r>
       <r>   -5.0466    1.0000 </r>
       <r>   -4.4313    1.0000 </r>
       <r>   -4.3337    1.0000 </r>
       <r>   -3.6868    1.0000 </r>
       <r>   -1.9235    1.0000 </r>
       <r>   -1.6417    1.0000 </r>
       <r>   -1.4923    1.0000 </r>
       <r>   -1.1184    1.0000 </r>
       <r>   -0.9414    1.0000 </r>
       <r>   -0.5684    1.0000 </r>
       <r>   -0.5213    1.0000 </r>
       <r>   -0.3198    1.0000 </r>
       <r>   -0.0165    1.0000 </r>
       <r>    0.6548    1.0000 </r>
       <r>    0.9077    1.0000 </r>
       <r>    0.9375    1.0000 </r>
       <r>    8.7746    0.0000 </r>
       <r>    9.7837    0.0000 </r>
       <r>   10.3722    0.0000 </r>
       <r>   10.5679    0.0000 </r>
       <r>   11.3112    0.0000 </r>
       <r>   11.6718    0.0000 </r>
      </set>
      <set comment="kpoint 20">
       <r>  -17.8769    1.0000 </r>
       <r>  -17.5385    1.0000 </r>
       <r>  -16.6586    1.0000 </r>
       <r>  -16.2546    1.0000 </r>
       <r>  -16.1969    1.0000 </r>
       <r>  -16.1659    1.0000 </r>
       <r>   -7.5413    1.0000 </r>
       <r>   -5.9322    1.0000 </r>
       <r>   -5.2300    1.0000 </r>
       <r>   -4.3120    1.0000 </r>
       <r>   -4.0583    1.0000 </r>
       <r>   -3.8225    1.0000 </r>
       <r>   -2.1037    1.0000 </r>
       <r>   -1.9207    1.0000 </r>
       <r>   -1.3481    1.0000 </r>
       <r>   -1.1827    1.0000 </r>
       <r>   -0.9419    1.0000 </r>
       <r>   -0.4831    1.0000 </r>
       <r>   -0.3501    1.0000 </r>
       <r>   -0.1407    1.0000 </r>
       <r>    0.1230    1.0000 </r>
       <r>    0.4588    1.0000 </r>
       <r>    0.6843    1.0000 </r>
       <r>    0.8824    1.0000 </r>
       <r>    9.4998    0.0000 </r>
       <r>   10.0813    0.0000 </r>
       <r>   10.6259    0.0000 </r>
       <r>   10.8026    0.0000 </r>
       <r>   11.5834    0.0000 </r>
       <r>   11.8486    0.0000 </r>
      </set>
      <set comment="kpoint 21">
       <r>  -17.8208    1.0000 </r>
       <r>  -17.3743    1.0000 </r>
       <r>  -16.9066    1.0000 </r>
       <r>  -16.2718    1.0000 </r>
       <r>  -16.1991    1.0000 </r>
       <r>  -16.1758    1.0000 </r>
       <r>   -7.1866    1.0000 </r>
       <r>   -6.2054    1.0000 </r>
       <r>   -5.2812    1.0000 </r>
       <r>   -4.2833    1.0000 </r>
       <r>   -3.9189    1.0000 </r>
       <r>   -3.8858    1.0000 </r>
       <r>   -2.1134    1.0000 </r>
       <r>   -2.0843    1.0000 </r>
       <r>   -1.3593    1.0000 </r>
       <r>   -1.1036    1.0000 </r>
       <r>   -0.9501    1.0000 </r>
       <r>   -0.5112    1.0000 </r>
       <r>   -0.2085    1.0000 </r>
       <r>   -0.0629    1.0000 </r>
       <r>    0.1308    1.0000 </r>
       <r>    0.4136    1.0000 </r>
       <r>    0.4702    1.0000 </r>
       <r>    0.9109    1.0000 </r>
       <r>    9.9975    0.0000 </r>
       <r>   10.3855    0.0000 </r>
       <r>   10.7492    0.0000 </r>
       <r>   11.0606    0.0000 </r>
       <r>   11.4865    0.0000 </r>
       <r>   11.6470    0.0000 </r>
      </set>
      <set comment="kpoint 22">
       <r>  -17.8826    1.0000 </r>
       <r>  -17.5263    1.0000 </r>
       <r>  -16.6762    1.0000 </r>
       <r>  -16.2475    1.0000 </r>
       <r>  -16.1887    1.0000 </r>
       <r>  -16.1700    1.0000 </r>
       <r>   -7.5431    1.0000 </r>
       <r>   -5.9368    1.0000 </r>
       <r>   -5.2241    1.0000 </r>
       <r>   -4.3329    1.0000 </r>
       <r>   -4.0591    1.0000 </r>
       <r>   -3.7835    1.0000 </r>
       <r>   -2.0806    1.0000 </r>
       <r>   -1.9439    1.0000 </r>
       <r>   -1.3179    1.0000 </r>
       <r>   -1.2537    1.0000 </r>
       <r>   -1.0028    1.0000 </r>
       <r>   -0.4096    1.0000 </r>
       <r>   -0.2989    1.0000 </r>
       <r>   -0.1094    1.0000 </r>
       <r>    0.1345    1.0000 </r>
       <r>    0.3287    1.0000 </r>
       <r>    0.6332    1.0000 </r>
       <r>    0.9816    1.0000 </r>
       <r>    9.3820    0.0000 </r>
       <r>   10.3569    0.0000 </r>
       <r>   10.5569    0.0000 </r>
       <r>   11.0706    0.0000 </r>
       <r>   11.2091    0.0000 </r>
       <r>   11.6760    0.0000 </r>
      </set>
      <set comment="kpoint 23">
       <r>  -18.0064    1.0000 </r>
       <r>  -17.6724    1.0000 </r>
       <r>  -16.3558    1.0000 </r>
       <r>  -16.2111    1.0000 </r>
       <r>  -16.1824    1.0000 </r>
       <r>  -16.1450    1.0000 </r>
       <r>   -8.0279    1.0000 </r>
       <r>   -5.6339    1.0000 </r>
       <r>   -5.0459    1.0000 </r>
       <r>   -4.4276    1.0000 </r>
       <r>   -4.3423    1.0000 </r>
       <r>   -3.6754    1.0000 </r>
       <r>   -1.9167    1.0000 </r>
       <r>   -1.6389    1.0000 </r>
       <r>   -1.4899    1.0000 </r>
       <r>   -1.1473    1.0000 </r>
       <r>   -0.9736    1.0000 </r>
       <r>   -0.5659    1.0000 </r>
       <r>   -0.4491    1.0000 </r>
       <r>   -0.3444    1.0000 </r>
       <r>   -0.0162    1.0000 </r>
       <r>    0.6529    1.0000 </r>
       <r>    0.8177    1.0000 </r>
       <r>    1.0231    1.0000 </r>
       <r>    8.7486    0.0000 </r>
       <r>    9.8390    0.0000 </r>
       <r>   10.3312    0.0000 </r>
       <r>   10.6863    0.0000 </r>
       <r>   11.2030    0.0000 </r>
       <r>   11.6557    0.0000 </r>
      </set>
      <set comment="kpoint 24">
       <r>  -17.9099    1.0000 </r>
       <r>  -17.5820    1.0000 </r>
       <r>  -16.5721    1.0000 </r>
       <r>  -16.2388    1.0000 </r>
       <r>  -16.1927    1.0000 </r>
       <r>  -16.1669    1.0000 </r>
       <r>   -7.6788    1.0000 </r>
       <r>   -5.8239    1.0000 </r>
       <r>   -5.2263    1.0000 </r>
       <r>   -4.3106    1.0000 </r>
       <r>   -4.1502    1.0000 </r>
       <r>   -3.7681    1.0000 </r>
       <r>   -2.0596    1.0000 </r>
       <r>   -1.8390    1.0000 </r>
       <r>   -1.3861    1.0000 </r>
       <r>   -1.2432    1.0000 </r>
       <r>   -0.9345    1.0000 </r>
       <r>   -0.4958    1.0000 </r>
       <r>   -0.3542    1.0000 </r>
       <r>   -0.1451    1.0000 </r>
       <r>    0.0893    1.0000 </r>
       <r>    0.4581    1.0000 </r>
       <r>    0.7444    1.0000 </r>
       <r>    0.9094    1.0000 </r>
       <r>    9.2311    0.0000 </r>
       <r>   10.0933    0.0000 </r>
       <r>   10.5304    0.0000 </r>
       <r>   10.9155    0.0000 </r>
       <r>   11.3005    0.0000 </r>
       <r>   11.6576    0.0000 </r>
      </set>
      <set comment="kpoint 25">
       <r>  -17.8143    1.0000 </r>
       <r>  -17.3997    1.0000 </r>
       <r>  -16.8752    1.0000 </r>
       <r>  -16.2695    1.0000 </r>
       <r>  -16.2076    1.0000 </r>
       <r>  -16.1830    1.0000 </r>
       <r>   -7.1803    1.0000 </r>
       <r>   -6.1599    1.0000 </r>
       <r>   -5.3708    1.0000 </r>
       <r>   -4.2297    1.0000 </r>
       <r>   -3.9633    1.0000 </r>
       <r>   -3.8818    1.0000 </r>
       <r>   -2.1517    1.0000 </r>
       <r>   -1.9546    1.0000 </r>
       <r>   -1.4597    1.0000 </r>
       <r>   -1.0935    1.0000 </r>
       <r>   -0.8782    1.0000 </r>
       <r>   -0.6358    1.0000 </r>
       <r>   -0.1524    1.0000 </r>
       <r>   -0.0336    1.0000 </r>
       <r>    0.1938    1.0000 </r>
       <r>    0.3700    1.0000 </r>
       <r>    0.5596    1.0000 </r>
       <r>    0.7888    1.0000 </r>
       <r>    9.9215    0.0000 </r>
       <r>   10.4292    0.0000 </r>
       <r>   10.7262    0.0000 </r>
       <r>   11.1341    0.0000 </r>
       <r>   11.4512    0.0000 </r>
       <r>   11.7224    0.0000 </r>
      </set>
      <set comment="kpoint 26">
       <r>  -17.8165    1.0000 </r>
       <r>  -17.3927    1.0000 </r>
       <r>  -16.8830    1.0000 </r>
       <r>  -16.2667    1.0000 </r>
       <r>  -16.2066    1.0000 </r>
       <r>  -16.1837    1.0000 </r>
       <r>   -7.1810    1.0000 </r>
       <r>   -6.1615    1.0000 </r>
       <r>   -5.3686    1.0000 </r>
       <r>   -4.2385    1.0000 </r>
       <r>   -3.9661    1.0000 </r>
       <r>   -3.8645    1.0000 </r>
       <r>   -2.1457    1.0000 </r>
       <r>   -1.9602    1.0000 </r>
       <r>   -1.4668    1.0000 </r>
       <r>   -1.0915    1.0000 </r>
       <r>   -0.9255    1.0000 </r>
       <r>   -0.5871    1.0000 </r>
       <r>   -0.1580    1.0000 </r>
       <r>    0.0252    1.0000 </r>
       <r>    0.1883    1.0000 </r>
       <r>    0.2976    1.0000 </r>
       <r>    0.5385    1.0000 </r>
       <r>    0.8327    1.0000 </r>
       <r>    9.8645    0.0000 </r>
       <r>   10.5299    0.0000 </r>
       <r>   10.7974    0.0000 </r>
       <r>   11.1237    0.0000 </r>
       <r>   11.3053    0.0000 </r>
       <r>   11.6777    0.0000 </r>
      </set>
      <set comment="kpoint 27">
       <r>  -17.7808    1.0000 </r>
       <r>  -17.2638    1.0000 </r>
       <r>  -17.0442    1.0000 </r>
       <r>  -16.2773    1.0000 </r>
       <r>  -16.2199    1.0000 </r>
       <r>  -16.1922    1.0000 </r>
       <r>   -6.8660    1.0000 </r>
       <r>   -6.3813    1.0000 </r>
       <r>   -5.4792    1.0000 </r>
       <r>   -4.1798    1.0000 </r>
       <r>   -3.9232    1.0000 </r>
       <r>   -3.9222    1.0000 </r>
       <r>   -2.1840    1.0000 </r>
       <r>   -1.7437    1.0000 </r>
       <r>   -1.7281    1.0000 </r>
       <r>   -0.8855    1.0000 </r>
       <r>   -0.8617    1.0000 </r>
       <r>   -0.8551    1.0000 </r>
       <r>    0.0171    1.0000 </r>
       <r>    0.0336    1.0000 </r>
       <r>    0.1992    1.0000 </r>
       <r>    0.4222    1.0000 </r>
       <r>    0.4440    1.0000 </r>
       <r>    0.6508    1.0000 </r>
       <r>   10.1467    0.0000 </r>
       <r>   10.7005    0.0000 </r>
       <r>   10.9247    0.0000 </r>
       <r>   11.2097    0.0000 </r>
       <r>   11.3129    0.0000 </r>
       <r>   11.3830    0.0000 </r>
      </set>
     </set>
    </set>
   </array>
  </eigenvalues>
  <separator name="orbital magnetization" >
   <v name="MAGDIPOLOUT">      0.00000000      0.00000000      0.00000000</v>
  </separator>
  <dos>
   <i name="efermi">      1.17162355 </i>
   <total>
    <array>
     <dimension dim="1">gridpoints</dimension>
     <dimension dim="2">spin</dimension>
     <field>energy</field>
     <field>total</field>
     <field>integrated</field>
     <set>
      <set comment="spin 1">
       <r>   -20.3728     0.0000     0.0000 </r>
       <r>   -20.2565     0.0000     0.0000 </r>
       <r>   -20.1402     0.0000     0.0000 </r>
       <r>   -20.0239     0.0000     0.0000 </r>
       <r>   -19.9076     0.0000     0.0000 </r>
       <r>   -19.7913     0.0000     0.0000 </r>
       <r>   -19.6750     0.0000     0.0000 </r>
       <r>   -19.5587     0.0000     0.0000 </r>
       <r>   -19.4424     0.0000     0.0000 </r>
       <r>   -19.3261     0.0000     0.0000 </r>
       <r>   -19.2098     0.0000     0.0000 </r>
       <r>   -19.0935     0.0000     0.0000 </r>
       <r>   -18.9772     0.0000     0.0000 </r>
       <r>   -18.8609     0.0000     0.0000 </r>
       <r>   -18.7446     0.0000     0.0000 </r>
       <r>   -18.6283     0.0000     0.0000 </r>
       <r>   -18.5120     0.0000     0.0000 </r>
       <r>   -18.3957     0.0000     0.0000 </r>
       <r>   -18.2794     1.0131     0.0350 </r>
       <r>   -18.1631     1.7206     0.1915 </r>
       <r>   -18.0468     3.0672     0.4523 </r>
       <r>   -17.9305     4.9021     0.9268 </r>
       <r>   -17.8142     7.0152     1.8130 </r>
       <r>   -17.6979     0.8242     2.0040 </r>
       <r>   -17.5816     1.6410     2.1493 </r>
       <r>   -17.4653     3.6226     2.4265 </r>
       <r>   -17.3490     6.1184     3.3907 </r>
       <r>   -17.2327     1.8165     3.7659 </r>
       <r>   -17.1164     0.8084     3.9090 </r>
       <r>   -17.0001     0.6711     3.9820 </r>
       <r>   -16.8838     5.6888     4.1616 </r>
       <r>   -16.7675     6.0615     5.1187 </r>
       <r>   -16.6512     2.4460     5.5420 </r>
       <r>   -16.5349     1.4227     5.7620 </r>
       <r>   -16.4186     0.9265     5.9008 </r>
       <r>   -16.3023     0.4458     5.9841 </r>
       <r>   -16.1860    79.5590     9.9024 </r>
       <r>   -16.0697     0.0000    12.0000 </r>
       <r>   -15.9534     0.0000    12.0000 </r>
       <r>   -15.8371     0.0000    12.0000 </r>
       <r>   -15.7208     0.0000    12.0000 </r>
       <r>   -15.6045     0.0000    12.0000 </r>
       <r>   -15.4882     0.0000    12.0000 </r>
       <r>   -15.3719     0.0000    12.0000 </r>
       <r>   -15.2556     0.0000    12.0000 </r>
       <r>   -15.1393     0.0000    12.0000 </r>
       <r>   -15.0230     0.0000    12.0000 </r>
       <r>   -14.9067     0.0000    12.0000 </r>
       <r>   -14.7904     0.0000    12.0000 </r>
       <r>   -14.6741     0.0000    12.0000 </r>
       <r>   -14.5578     0.0000    12.0000 </r>
       <r>   -14.4415     0.0000    12.0000 </r>
       <r>   -14.3252     0.0000    12.0000 </r>
       <r>   -14.2089     0.0000    12.0000 </r>
       <r>   -14.0926     0.0000    12.0000 </r>
       <r>   -13.9763     0.0000    12.0000 </r>
       <r>   -13.8600     0.0000    12.0000 </r>
       <r>   -13.7437     0.0000    12.0000 </r>
       <r>   -13.6274     0.0000    12.0000 </r>
       <r>   -13.5111     0.0000    12.0000 </r>
       <r>   -13.3948     0.0000    12.0000 </r>
       <r>   -13.2785     0.0000    12.0000 </r>
       <r>   -13.1622     0.0000    12.0000 </r>
       <r>   -13.0459     0.0000    12.0000 </r>
       <r>   -12.9296     0.0000    12.0000 </r>
       <r>   -12.8133     0.0000    12.0000 </r>
       <r>   -12.6970     0.0000    12.0000 </r>
       <r>   -12.5807     0.0000    12.0000 </r>
       <r>   -12.4644     0.0000    12.0000 </r>
       <r>   -12.3481     0.0000    12.0000 </r>
       <r>   -12.2319     0.0000    12.0000 </r>
       <r>   -12.1156     0.0000    12.0000 </r>
       <r>   -11.9993     0.0000    12.0000 </r>
       <r>   -11.8830     0.0000    12.0000 </r>
       <r>   -11.7667     0.0000    12.0000 </r>
       <r>   -11.6504     0.0000    12.0000 </r>
       <r>   -11.5341     0.0000    12.0000 </r>
       <r>   -11.4178     0.0000    12.0000 </r>
       <r>   -11.3015     0.0000    12.0000 </r>
       <r>   -11.1852     0.0000    12.0000 </r>
       <r>   -11.0689     0.0000    12.0000 </r>
       <r>   -10.9526     0.0000    12.0000 </r>
       <r>   -10.8363     0.0000    12.0000 </r>
       <r>   -10.7200     0.0000    12.0000 </r>
       <r>   -10.6037     0.0000    12.0000 </r>
       <r>   -10.4874     0.0000    12.0000 </r>
       <r>   -10.3711     0.0000    12.0000 </r>
       <r>   -10.2548     0.0000    12.0000 </r>
       <r>   -10.1385     0.0000    12.0000 </r>
       <r>   -10.0222     0.0000    12.0000 </r>
       <r>    -9.9059     0.0000    12.0000 </r>
       <r>    -9.7896     0.0000    12.0000 </r>
       <r>    -9.6733     0.0000    12.0000 </r>
       <r>    -9.5570     0.0000    12.0000 </r>
       <r>    -9.4407     0.0000    12.0000 </r>
       <r>    -9.3244     0.0000    12.0000 </r>
       <r>    -9.2081     0.0000    12.0000 </r>
       <r>    -9.0918     0.0000    12.0000 </r>
       <r>    -8.9755     0.0000    12.0000 </r>
       <r>    -8.8592     0.0000    12.0000 </r>
       <r>    -8.7429     0.0000    12.0000 </r>
       <r>    -8.6266     0.0000    12.0000 </r>
       <r>    -8.5103     0.0000    12.0000 </r>
       <r>    -8.3940     0.0000    12.0000 </r>
       <r>    -8.2777     0.0000    12.0000 </r>
       <r>    -8.1614     0.1307    12.0041 </r>
       <r>    -8.0451     0.4632    12.0374 </r>
       <r>    -7.9288     0.5471    12.0916 </r>
       <r>    -7.8125     0.7672    12.1680 </r>
       <r>    -7.6962     0.9683    12.2682 </r>
       <r>    -7.5799     1.3876    12.4052 </r>
       <r>    -7.4636     1.9923    12.5969 </r>
       <r>    -7.3473     5.8233    12.9593 </r>
       <r>    -7.2310     3.0311    13.7233 </r>
       <r>    -7.1147     0.7011    13.9290 </r>
       <r>    -6.9984     0.3673    13.9889 </r>
       <r>    -6.8821     0.2120    14.0209 </r>
       <r>    -6.7658     0.3172    14.0502 </r>
       <r>    -6.6495     0.4767    14.0960 </r>
       <r>    -6.5332     0.7843    14.1672 </r>
       <r>    -6.4169     1.3230    14.2874 </r>
       <r>    -6.3006     2.8063    14.4957 </r>
       <r>    -6.1843     6.6442    15.0547 </r>
       <r>    -6.0680     2.4505    15.4917 </r>
       <r>    -5.9517     1.3592    15.7064 </r>
       <r>    -5.8354     0.8910    15.8339 </r>
       <r>    -5.7191     0.5962    15.9195 </r>
       <r>    -5.6028     0.5009    15.9821 </r>
       <r>    -5.4865     0.2001    16.0067 </r>
       <r>    -5.3702     2.2187    16.1475 </r>
       <r>    -5.2539     3.5661    16.5096 </r>
       <r>    -5.1376     2.8973    16.8653 </r>
       <r>    -5.0213     2.7662    17.2011 </r>
       <r>    -4.9050     1.9680    17.4793 </r>
       <r>    -4.7887     1.4066    17.6716 </r>
       <r>    -4.6724     1.0301    17.8120 </r>
       <r>    -4.5561     0.6865    17.9113 </r>
       <r>    -4.4398     1.8223    18.0253 </r>
       <r>    -4.3235    18.8965    19.2049 </r>
       <r>    -4.2072     8.0322    20.4511 </r>
       <r>    -4.0909     6.9252    21.1818 </r>
       <r>    -3.9746     4.3415    21.8545 </r>
       <r>    -3.8583     6.9747    22.3949 </r>
       <r>    -3.7420     6.2329    23.2939 </r>
       <r>    -3.6257     2.7874    23.8119 </r>
       <r>    -3.5094     0.2647    23.9956 </r>
       <r>    -3.3931     0.0000    24.0000 </r>
       <r>    -3.2768     0.0000    24.0000 </r>
       <r>    -3.1605     0.0000    24.0000 </r>
       <r>    -3.0442     0.0000    24.0000 </r>
       <r>    -2.9279     0.0000    24.0000 </r>
       <r>    -2.8116     0.0000    24.0000 </r>
       <r>    -2.6953     0.0000    24.0000 </r>
       <r>    -2.5790     0.0000    24.0000 </r>
       <r>    -2.4627     0.0000    24.0000 </r>
       <r>    -2.3464     0.0000    24.0000 </r>
       <r>    -2.2301     0.0000    24.0000 </r>
       <r>    -2.1138    10.9418    24.3454 </r>
       <r>    -1.9975     8.1427    25.7472 </r>
       <r>    -1.8812     5.3853    26.4330 </r>
       <r>    -1.7649     7.1589    27.2758 </r>
       <r>    -1.6486     7.8007    28.0353 </r>
       <r>    -1.5323    10.5315    28.8494 </r>
       <r>    -1.4160     5.1182    29.7495 </r>
       <r>    -1.2997     1.2112    30.0345 </r>
       <r>    -1.1834    15.3557    30.8576 </r>
       <r>    -1.0671     2.6398    31.8367 </r>
       <r>    -0.9508    15.0172    32.4621 </r>
       <r>    -0.8345     1.2438    33.8640 </r>
       <r>    -0.7182     3.4777    34.1195 </r>
       <r>    -0.6019     6.4416    34.8230 </r>
       <r>    -0.4856    10.7685    35.9109 </r>
       <r>    -0.3693     7.9865    37.2052 </r>
       <r>    -0.2530     4.7325    37.8239 </r>
       <r>    -0.1367    12.1163    38.7136 </r>
       <r>    -0.0204     6.4394    39.8877 </r>
       <r>     0.0959    11.4662    40.6512 </r>
       <r>     0.2122     0.0000    42.0000 </r>
       <r>     0.3285     9.1399    42.3064 </r>
       <r>     0.4448     4.9428    43.5722 </r>
       <r>     0.5611     4.2484    44.0773 </r>
       <r>     0.6774     6.5701    44.6613 </r>
       <r>     0.7937    10.0189    45.6762 </r>
       <r>     0.9100     6.8105    46.4764 </r>
       <r>     1.0262    11.9356    47.6905 </r>
       <r>     1.1425     0.0000    48.0000 </r>
       <r>     1.2588     0.0000    48.0000 </r>
       <r>     1.3751     0.0000    48.0000 </r>
       <r>     1.4914     0.0000    48.0000 </r>
       <r>     1.6077     0.0000    48.0000 </r>
       <r>     1.7240     0.0000    48.0000 </r>
       <r>     1.8403     0.0000    48.0000 </r>
       <r>     1.9566     0.0000    48.0000 </r>
       <r>     2.0729     0.0000    48.0000 </r>
       <r>     2.1892     0.0000    48.0000 </r>
       <r>     2.3055     0.0000    48.0000 </r>
       <r>     2.4218     0.0000    48.0000 </r>
       <r>     2.5381     0.0000    48.0000 </r>
       <r>     2.6544     0.0000    48.0000 </r>
       <r>     2.7707     0.0000    48.0000 </r>
       <r>     2.8870     0.0000    48.0000 </r>
       <r>     3.0033     0.0000    48.0000 </r>
       <r>     3.1196     0.0000    48.0000 </r>
       <r>     3.2359     0.0000    48.0000 </r>
       <r>     3.3522     0.0000    48.0000 </r>
       <r>     3.4685     0.0000    48.0000 </r>
       <r>     3.5848     0.0000    48.0000 </r>
       <r>     3.7011     0.0000    48.0000 </r>
       <r>     3.8174     0.0000    48.0000 </r>
       <r>     3.9337     0.0000    48.0000 </r>
       <r>     4.0500     0.0000    48.0000 </r>
       <r>     4.1663     0.0000    48.0000 </r>
       <r>     4.2826     0.0000    48.0000 </r>
       <r>     4.3989     0.0000    48.0000 </r>
       <r>     4.5152     0.0000    48.0000 </r>
       <r>     4.6315     0.0000    48.0000 </r>
       <r>     4.7478     0.0000    48.0000 </r>
       <r>     4.8641     0.0000    48.0000 </r>
       <r>     4.9804     0.0000    48.0000 </r>
       <r>     5.0967     0.0000    48.0000 </r>
       <r>     5.2130     0.0000    48.0000 </r>
       <r>     5.3293     0.0000    48.0000 </r>
       <r>     5.4456     0.0000    48.0000 </r>
       <r>     5.5619     0.0000    48.0000 </r>
       <r>     5.6782     0.0000    48.0000 </r>
       <r>     5.7945     0.0000    48.0000 </r>
       <r>     5.9108     0.0000    48.0000 </r>
       <r>     6.0271     0.0000    48.0000 </r>
       <r>     6.1434     0.0000    48.0000 </r>
       <r>     6.2597     0.0000    48.0000 </r>
       <r>     6.3760     0.0000    48.0000 </r>
       <r>     6.4923     0.0000    48.0000 </r>
       <r>     6.6086     0.0000    48.0000 </r>
       <r>     6.7249     0.0000    48.0000 </r>
       <r>     6.8412     0.0000    48.0000 </r>
       <r>     6.9575     0.0000    48.0000 </r>
       <r>     7.0738     0.0000    48.0000 </r>
       <r>     7.1901     0.0049    48.0001 </r>
       <r>     7.3064     0.0347    48.0021 </r>
       <r>     7.4227     0.0917    48.0092 </r>
       <r>     7.5390     0.1815    48.0246 </r>
       <r>     7.6553     0.2379    48.0493 </r>
       <r>     7.7716     0.2730    48.0792 </r>
       <r>     7.8879     0.2906    48.1121 </r>
       <r>     8.0042     0.3362    48.1485 </r>
       <r>     8.1205     0.3845    48.1904 </r>
       <r>     8.2368     0.4355    48.2380 </r>
       <r>     8.3531     0.4890    48.2918 </r>
       <r>     8.4694     0.5446    48.3519 </r>
       <r>     8.5857     0.6800    48.4221 </r>
       <r>     8.7020     0.8346    48.5102 </r>
       <r>     8.8183     0.8223    48.6078 </r>
       <r>     8.9346     0.8839    48.7070 </r>
       <r>     9.0509     0.9476    48.8135 </r>
       <r>     9.1672     1.0132    48.9275 </r>
       <r>     9.2835     1.1979    49.0502 </r>
       <r>     9.3998     1.5259    49.2176 </r>
       <r>     9.5161     1.3203    49.3868 </r>
       <r>     9.6324     1.2336    49.5338 </r>
       <r>     9.7487     1.4498    49.6880 </r>
       <r>     9.8650     1.5027    49.8622 </r>
       <r>     9.9813     1.4922    50.0796 </r>
       <r>    10.0976     1.0876    50.2186 </r>
       <r>    10.2139     2.4869    50.4010 </r>
       <r>    10.3302     7.9574    50.9297 </r>
       <r>    10.4465     4.3682    51.9857 </r>
       <r>    10.5628     5.2211    52.4749 </r>
       <r>    10.6791     8.3579    53.3250 </r>
       <r>    10.7954     5.1533    54.1421 </r>
       <r>    10.9117     2.3894    54.5309 </r>
       <r>    11.0280     4.8963    54.9327 </r>
       <r>    11.1443     6.5810    55.7474 </r>
       <r>    11.2606     5.7885    56.2531 </r>
       <r>    11.3769     6.7566    56.9836 </r>
       <r>    11.4932     5.1443    57.7693 </r>
       <r>    11.6095     1.1157    58.0855 </r>
       <r>    11.7258    11.3104    59.0925 </r>
       <r>    11.8421     1.6283    59.6887 </r>
       <r>    11.9584     0.7531    59.8174 </r>
       <r>    12.0747     0.5275    59.8893 </r>
       <r>    12.1910     0.3782    59.9420 </r>
       <r>    12.3073     0.2454    59.9780 </r>
       <r>    12.4236     0.0709    59.9978 </r>
       <r>    12.5399     0.0000    60.0000 </r>
       <r>    12.6562     0.0000    60.0000 </r>
       <r>    12.7725     0.0000    60.0000 </r>
       <r>    12.8888     0.0000    60.0000 </r>
       <r>    13.0051     0.0000    60.0000 </r>
       <r>    13.1214     0.0000    60.0000 </r>
       <r>    13.2377     0.0000    60.0000 </r>
       <r>    13.3540     0.0000    60.0000 </r>
       <r>    13.4703     0.0000    60.0000 </r>
       <r>    13.5866     0.0000    60.0000 </r>
       <r>    13.7029     0.0000    60.0000 </r>
       <r>    13.8192     0.0000    60.0000 </r>
       <r>    13.9355     0.0000    60.0000 </r>
       <r>    14.0518     0.0000    60.0000 </r>
       <r>    14.1681     0.0000    60.0000 </r>
       <r>    14.2843     0.0000    60.0000 </r>
       <r>    14.4006     0.0000    60.0000 </r>
       <r>    14.5169     0.0000    60.0000 </r>
      </set>
     </set>
    </array>
   </total>
  </dos>
 </calculation>
 <structure name="finalpos" >
  <crystal>
   <varray name="basis" >
    <v>       4.91380000       0.00000000       0.00000000 </v>
    <v>      -2.45690000       4.25547563       0.00000000 </v>
    <v>       0.00000000       0.00000000       5.40520000 </v>
   </varray>
   <i name="volume">    113.02573808 </i>
   <varray name="rec_basis" >
    <v>       0.20350849       0.11749568       0.00000000 </v>
    <v>       0.00000000       0.23499136       0.00000000 </v>
    <v>       0.00000000       0.00000000       0.18500703 </v>
   </varray>
  </crystal>
  <varray name="positions" >
   <v>       0.46980000       0.00000000       0.66666667 </v>
   <v>       0.53020000       0.53020000       0.00000000 </v>
   <v>       0.00000000       0.46980000       0.33333333 </v>
   <v>       0.41450000       0.26620000       0.78560000 </v>
   <v>       0.58550000       0.85170000       0.88106667 </v>
   <v>       0.14830000       0.73380000       0.54773333 </v>
   <v>       0.26620000       0.41450000       0.21440000 </v>
   <v>       0.85170000       0.58550000       0.11893333 </v>
   <v>       0.73380000       0.14830000       0.45226667 </v>
  </varray>
 </structure>
</modeling>
