   9   9   0   0
  0.1255842E+02  0.4913800E-09  0.4913800E-09  0.5405200E-09  0.5000000E-15
  1.000000000000000E-004
  CAR 
 unknown system                          
     14.75720932    -20.37242850  301      1.11519997      1.00000000
    -20.372  0.0000E+00  0.0000E+00
    -20.255  0.0000E+00  0.0000E+00
    -20.138  0.0000E+00  0.0000E+00
    -20.021  0.0000E+00  0.0000E+00
    -19.904  0.0000E+00  0.0000E+00
    -19.787  0.0000E+00  0.0000E+00
    -19.670  0.0000E+00  0.0000E+00
    -19.553  0.0000E+00  0.0000E+00
    -19.436  0.0000E+00  0.0000E+00
    -19.319  0.0000E+00  0.0000E+00
    -19.201  0.0000E+00  0.0000E+00
    -19.084  0.0000E+00  0.0000E+00
    -18.967  0.0000E+00  0.0000E+00
    -18.850  0.0000E+00  0.0000E+00
    -18.733  0.0000E+00  0.0000E+00
    -18.616  0.0000E+00  0.0000E+00
    -18.499  0.0000E+00  0.0000E+00
    -18.382  0.0000E+00  0.0000E+00
    -18.265  0.1135E+01  0.5047E-01
    -18.148  0.1849E+01  0.2186E+00
    -18.030  0.3502E+01  0.5048E+00
    -17.913  0.5173E+01  0.1011E+01
    -17.796  0.4107E+01  0.1911E+01
    -17.679  0.1505E+01  0.2025E+01
    -17.562  0.1783E+01  0.2182E+01
    -17.445  0.4525E+01  0.2507E+01
    -17.328  0.4459E+01  0.3500E+01
    -17.211  0.1547E+01  0.3802E+01
    -17.094  0.7112E+00  0.3926E+01
    -16.977  0.8310E+00  0.3999E+01
    -16.859  0.5405E+01  0.4283E+01
    -16.742  0.4555E+01  0.5248E+01
    -16.625  0.2179E+01  0.5601E+01
    -16.508  0.1334E+01  0.5798E+01
    -16.391  0.8017E+00  0.5924E+01
    -16.274  0.5685E+01  0.6002E+01
    -16.157  0.2614E+02  0.1169E+02
    -16.040  0.0000E+00  0.1200E+02
    -15.923  0.0000E+00  0.1200E+02
    -15.806  0.0000E+00  0.1200E+02
    -15.688  0.0000E+00  0.1200E+02
    -15.571  0.0000E+00  0.1200E+02
    -15.454  0.0000E+00  0.1200E+02
    -15.337  0.0000E+00  0.1200E+02
    -15.220  0.0000E+00  0.1200E+02
    -15.103  0.0000E+00  0.1200E+02
    -14.986  0.0000E+00  0.1200E+02
    -14.869  0.0000E+00  0.1200E+02
    -14.752  0.0000E+00  0.1200E+02
    -14.635  0.0000E+00  0.1200E+02
    -14.517  0.0000E+00  0.1200E+02
    -14.400  0.0000E+00  0.1200E+02
    -14.283  0.0000E+00  0.1200E+02
    -14.166  0.0000E+00  0.1200E+02
    -14.049  0.0000E+00  0.1200E+02
    -13.932  0.0000E+00  0.1200E+02
    -13.815  0.0000E+00  0.1200E+02
    -13.698  0.0000E+00  0.1200E+02
    -13.581  0.0000E+00  0.1200E+02
    -13.464  0.0000E+00  0.1200E+02
    -13.347  0.0000E+00  0.1200E+02
    -13.229  0.0000E+00  0.1200E+02
    -13.112  0.0000E+00  0.1200E+02
    -12.995  0.0000E+00  0.1200E+02
    -12.878  0.0000E+00  0.1200E+02
    -12.761  0.0000E+00  0.1200E+02
    -12.644  0.0000E+00  0.1200E+02
    -12.527  0.0000E+00  0.1200E+02
    -12.410  0.0000E+00  0.1200E+02
    -12.293  0.0000E+00  0.1200E+02
    -12.176  0.0000E+00  0.1200E+02
    -12.058  0.0000E+00  0.1200E+02
    -11.941  0.0000E+00  0.1200E+02
    -11.824  0.0000E+00  0.1200E+02
    -11.707  0.0000E+00  0.1200E+02
    -11.590  0.0000E+00  0.1200E+02
    -11.473  0.0000E+00  0.1200E+02
    -11.356  0.0000E+00  0.1200E+02
    -11.239  0.0000E+00  0.1200E+02
    -11.122  0.0000E+00  0.1200E+02
    -11.005  0.0000E+00  0.1200E+02
    -10.887  0.0000E+00  0.1200E+02
    -10.770  0.0000E+00  0.1200E+02
    -10.653  0.0000E+00  0.1200E+02
    -10.536  0.0000E+00  0.1200E+02
    -10.419  0.0000E+00  0.1200E+02
    -10.302  0.0000E+00  0.1200E+02
    -10.185  0.0000E+00  0.1200E+02
    -10.068  0.0000E+00  0.1200E+02
     -9.951  0.0000E+00  0.1200E+02
     -9.834  0.0000E+00  0.1200E+02
     -9.716  0.0000E+00  0.1200E+02
     -9.599  0.0000E+00  0.1200E+02
     -9.482  0.0000E+00  0.1200E+02
     -9.365  0.0000E+00  0.1200E+02
     -9.248  0.0000E+00  0.1200E+02
     -9.131  0.0000E+00  0.1200E+02
     -9.014  0.0000E+00  0.1200E+02
     -8.897  0.0000E+00  0.1200E+02
     -8.780  0.0000E+00  0.1200E+02
     -8.663  0.0000E+00  0.1200E+02
     -8.545  0.0000E+00  0.1200E+02
     -8.428  0.0000E+00  0.1200E+02
     -8.311  0.0000E+00  0.1200E+02
     -8.194  0.6649E-01  0.1200E+02
     -8.077  0.3685E+00  0.1203E+02
     -7.960  0.4976E+00  0.1208E+02
     -7.843  0.7159E+00  0.1215E+02
     -7.726  0.9097E+00  0.1224E+02
     -7.609  0.1291E+01  0.1237E+02
     -7.492  0.1809E+01  0.1255E+02
     -7.374  0.3837E+01  0.1285E+02
     -7.257  0.3773E+01  0.1364E+02
     -7.140  0.7923E+00  0.1391E+02
     -7.023  0.4117E+00  0.1398E+02
     -6.906  0.2266E+00  0.1402E+02
     -6.789  0.2931E+00  0.1404E+02
     -6.672  0.4468E+00  0.1409E+02
     -6.555  0.7210E+00  0.1415E+02
     -6.438  0.1227E+01  0.1427E+02
     -6.321  0.2180E+01  0.1445E+02
     -6.203  0.6025E+01  0.1495E+02
     -6.086  0.2644E+01  0.1545E+02
     -5.969  0.1455E+01  0.1569E+02
     -5.852  0.9305E+00  0.1582E+02
     -5.735  0.6239E+00  0.1591E+02
     -5.618  0.5827E+00  0.1598E+02
     -5.501  0.1324E+00  0.1600E+02
     -5.384  0.2055E+01  0.1613E+02
     -5.267  0.3623E+01  0.1648E+02
     -5.150  0.2895E+01  0.1684E+02
     -5.032  0.2809E+01  0.1718E+02
     -4.915  0.2023E+01  0.1747E+02
     -4.798  0.1430E+01  0.1766E+02
     -4.681  0.1045E+01  0.1781E+02
     -4.564  0.6989E+00  0.1791E+02
     -4.447  0.1744E+01  0.1802E+02
     -4.330  0.1908E+02  0.1915E+02
     -4.213  0.8171E+01  0.2044E+02
     -4.096  0.6862E+01  0.2117E+02
     -3.979  0.4346E+01  0.2185E+02
     -3.861  0.7027E+01  0.2240E+02
     -3.744  0.6176E+01  0.2330E+02
     -3.627  0.2756E+01  0.2382E+02
     -3.510  0.2324E+00  0.2400E+02
     -3.393  0.0000E+00  0.2400E+02
     -3.276  0.0000E+00  0.2400E+02
     -3.159  0.0000E+00  0.2400E+02
     -3.042  0.0000E+00  0.2400E+02
     -2.925  0.0000E+00  0.2400E+02
     -2.808  0.0000E+00  0.2400E+02
     -2.691  0.0000E+00  0.2400E+02
     -2.573  0.0000E+00  0.2400E+02
     -2.456  0.0000E+00  0.2400E+02
     -2.339  0.0000E+00  0.2400E+02
     -2.222  0.0000E+00  0.2400E+02
     -2.105  0.1169E+02  0.2448E+02
     -1.988  0.6382E+01  0.2584E+02
     -1.871  0.5320E+01  0.2650E+02
     -1.754  0.6751E+01  0.2737E+02
     -1.637  0.4738E+01  0.2812E+02
     -1.520  0.1151E+02  0.2903E+02
     -1.402  0.4525E+01  0.2983E+02
     -1.285  0.1772E+01  0.3006E+02
     -1.168  0.1311E+02  0.3112E+02
     -1.051  0.2397E+01  0.3188E+02
     -0.934  0.2074E+02  0.3284E+02
     -0.817  0.1519E+01  0.3389E+02
     -0.700  0.6894E+01  0.3423E+02
     -0.583  0.7042E+01  0.3498E+02
     -0.466  0.1129E+02  0.3617E+02
     -0.349  0.5833E+01  0.3737E+02
     -0.231  0.4710E+01  0.3794E+02
     -0.114  0.1143E+02  0.3901E+02
      0.003  0.5109E+01  0.4004E+02
      0.120  0.1467E+02  0.4102E+02
      0.237  0.1124E+00  0.4200E+02
      0.354  0.1285E+02  0.4263E+02
      0.471  0.3547E+01  0.4369E+02
      0.588  0.4396E+01  0.4421E+02
      0.705  0.7374E+01  0.4488E+02
      0.822  0.8213E+01  0.4598E+02
      0.940  0.8053E+01  0.4673E+02
      1.057  0.4138E+01  0.4795E+02
      1.174  0.0000E+00  0.4800E+02
      1.291  0.0000E+00  0.4800E+02
      1.408  0.0000E+00  0.4800E+02
      1.525  0.0000E+00  0.4800E+02
      1.642  0.0000E+00  0.4800E+02
      1.759  0.0000E+00  0.4800E+02
      1.876  0.0000E+00  0.4800E+02
      1.993  0.0000E+00  0.4800E+02
      2.111  0.0000E+00  0.4800E+02
      2.228  0.0000E+00  0.4800E+02
      2.345  0.0000E+00  0.4800E+02
      2.462  0.0000E+00  0.4800E+02
      2.579  0.0000E+00  0.4800E+02
      2.696  0.0000E+00  0.4800E+02
      2.813  0.0000E+00  0.4800E+02
      2.930  0.0000E+00  0.4800E+02
      3.047  0.0000E+00  0.4800E+02
      3.164  0.0000E+00  0.4800E+02
      3.282  0.0000E+00  0.4800E+02
      3.399  0.0000E+00  0.4800E+02
      3.516  0.0000E+00  0.4800E+02
      3.633  0.0000E+00  0.4800E+02
      3.750  0.0000E+00  0.4800E+02
      3.867  0.0000E+00  0.4800E+02
      3.984  0.0000E+00  0.4800E+02
      4.101  0.0000E+00  0.4800E+02
      4.218  0.0000E+00  0.4800E+02
      4.335  0.0000E+00  0.4800E+02
      4.453  0.0000E+00  0.4800E+02
      4.570  0.0000E+00  0.4800E+02
      4.687  0.0000E+00  0.4800E+02
      4.804  0.0000E+00  0.4800E+02
      4.921  0.0000E+00  0.4800E+02
      5.038  0.0000E+00  0.4800E+02
      5.155  0.0000E+00  0.4800E+02
      5.272  0.0000E+00  0.4800E+02
      5.389  0.0000E+00  0.4800E+02
      5.506  0.0000E+00  0.4800E+02
      5.624  0.0000E+00  0.4800E+02
      5.741  0.0000E+00  0.4800E+02
      5.858  0.0000E+00  0.4800E+02
      5.975  0.0000E+00  0.4800E+02
      6.092  0.0000E+00  0.4800E+02
      6.209  0.0000E+00  0.4800E+02
      6.326  0.0000E+00  0.4800E+02
      6.443  0.0000E+00  0.4800E+02
      6.560  0.0000E+00  0.4800E+02
      6.677  0.0000E+00  0.4800E+02
      6.794  0.0000E+00  0.4800E+02
      6.912  0.0000E+00  0.4800E+02
      7.029  0.0000E+00  0.4800E+02
      7.146  0.6834E-03  0.4800E+02
      7.263  0.2060E-01  0.4800E+02
      7.380  0.6809E-01  0.4801E+02
      7.497  0.1431E+00  0.4802E+02
      7.614  0.2216E+00  0.4804E+02
      7.731  0.2632E+00  0.4807E+02
      7.848  0.2863E+00  0.4810E+02
      7.965  0.3211E+00  0.4814E+02
      8.083  0.3690E+00  0.4818E+02
      8.200  0.4195E+00  0.4822E+02
      8.317  0.4726E+00  0.4827E+02
      8.434  0.5280E+00  0.4833E+02
      8.551  0.6349E+00  0.4840E+02
      8.668  0.7914E+00  0.4848E+02
      8.785  0.8055E+00  0.4858E+02
      8.902  0.8670E+00  0.4868E+02
      9.019  0.9305E+00  0.4878E+02
      9.136  0.9960E+00  0.4890E+02
      9.254  0.1063E+01  0.4902E+02
      9.371  0.1526E+01  0.4917E+02
      9.488  0.1383E+01  0.4935E+02
      9.605  0.1245E+01  0.4950E+02
      9.722  0.1396E+01  0.4965E+02
      9.839  0.1482E+01  0.4982E+02
      9.956  0.1778E+01  0.5004E+02
     10.073  0.1097E+01  0.5019E+02
     10.190  0.2021E+01  0.5035E+02
     10.307  0.6219E+01  0.5078E+02
     10.425  0.5841E+01  0.5188E+02
     10.542  0.4434E+01  0.5238E+02
     10.659  0.8506E+01  0.5316E+02
     10.776  0.6139E+01  0.5404E+02
     10.893  0.2407E+01  0.5449E+02
     11.010  0.4394E+01  0.5485E+02
     11.127  0.7728E+01  0.5562E+02
     11.244  0.5493E+01  0.5616E+02
     11.361  0.6722E+01  0.5688E+02
     11.478  0.6088E+01  0.5774E+02
     11.596  0.1360E+01  0.5809E+02
     11.713  0.1627E+02  0.5901E+02
     11.830  0.1875E+01  0.5967E+02
     11.947  0.8318E+00  0.5981E+02
     12.064  0.5380E+00  0.5989E+02
     12.181  0.3530E+00  0.5994E+02
     12.298  0.1923E+00  0.5997E+02
     12.415  0.9494E-01  0.5999E+02
     12.532  0.4105E-01  0.6000E+02
     12.649  0.9430E-02  0.6000E+02
     12.767  0.0000E+00  0.6000E+02
     12.884  0.0000E+00  0.6000E+02
     13.001  0.0000E+00  0.6000E+02
     13.118  0.0000E+00  0.6000E+02
     13.235  0.0000E+00  0.6000E+02
     13.352  0.0000E+00  0.6000E+02
     13.469  0.0000E+00  0.6000E+02
     13.586  0.0000E+00  0.6000E+02
     13.703  0.0000E+00  0.6000E+02
     13.820  0.0000E+00  0.6000E+02
     13.938  0.0000E+00  0.6000E+02
     14.055  0.0000E+00  0.6000E+02
     14.172  0.0000E+00  0.6000E+02
     14.289  0.0000E+00  0.6000E+02
     14.406  0.0000E+00  0.6000E+02
     14.523  0.0000E+00  0.6000E+02
     14.640  0.0000E+00  0.6000E+02
     14.757  0.0000E+00  0.6000E+02
