       N       E                     dE             d eps       ncg     rms          rms(c)
DAV:   1     0.394484387960E+03    0.39448E+03   -0.32949E+04  1620   0.217E+03
DAV:   2    -0.548761214758E+02   -0.44936E+03   -0.43761E+03  2186   0.391E+02
DAV:   3    -0.803341214251E+02   -0.25458E+02   -0.25368E+02  1926   0.101E+02
DAV:   4    -0.806720613215E+02   -0.33794E+00   -0.33733E+00  1938   0.125E+01
DAV:   5    -0.806779925856E+02   -0.59313E-02   -0.59294E-02  1872   0.166E+00    0.188E+01
RMM:   6    -0.710814726141E+02    0.95965E+01   -0.40415E+01  1714   0.330E+01    0.513E+00
RMM:   7    -0.710517554896E+02    0.29717E-01   -0.15001E+00  1901   0.557E+00    0.339E+00
RMM:   8    -0.710674690135E+02   -0.15714E-01   -0.25458E-01  1834   0.414E+00    0.624E-01
RMM:   9    -0.710604831657E+02    0.69858E-02   -0.55683E-02  1934   0.122E+00    0.133E-01
RMM:  10    -0.710634625285E+02   -0.29794E-02   -0.13776E-02  1897   0.619E-01    0.227E-01
RMM:  11    -0.710621837760E+02    0.12788E-02   -0.25443E-03  1935   0.286E-01    0.629E-02
RMM:  12    -0.710621385017E+02    0.45274E-04   -0.79703E-04  1924   0.147E-01    0.832E-03
RMM:  13    -0.710621394107E+02   -0.90892E-06   -0.20199E-05  1313   0.266E-02
   1 F= -.71062139E+02 E0= -.71062139E+02  d E =0.000000E+00
