 vasp.5.4.4.18Apr17-6-g9f103f2a35 (build Jul 15 2019 14:02:39) complex          
  
 executed on                 TEST date 2024.09.18  14:38:16
 running on    4 total cores
 distrk:  each k-point on    4 cores,    1 groups
 distr:  one band on NCORES_PER_BAND=   2 cores,    2 groups


--------------------------------------------------------------------------------------------------------


 INCAR:
 POTCAR:   PAW_PBE Si 05Jan2001                   
 POTCAR:   PAW_PBE O 08Apr2002                    
 POTCAR:   PAW_PBE Si 05Jan2001                   
   VRHFIN =Si: s2p2                                                             
   LEXCH  = PE                                                                  
   EATOM  =   103.0669 eV,    7.5752 Ry                                         
                                                                                
   TITEL  = PAW_PBE Si 05Jan2001                                                
   LULTRA =        F    use ultrasoft PP ?                                      
   IUNSCR =        1    unscreen: 0-lin 1-nonlin 2-no                           
   RPACOR =    1.500    partial core radius                                     
   POMASS =   28.085; ZVAL   =    4.000    mass and valenz                      
   RCORE  =    1.900    outmost cutoff radius                                   
   RWIGS  =    2.480; RWIGS  =    1.312    wigner-seitz radius (au A)           
   ENMAX  =  245.345; ENMIN  =  184.009 eV                                      
   ICORE  =        2    local potential                                         
   LCOR   =        T    correct aug charges                                     
   LPAW   =        T    paw PP                                                  
   EAUG   =  322.069                                                            
   DEXC   =    -.007                                                            
   RMAX   =    2.944    core radius for proj-oper                               
   RAUG   =    1.300    factor for augmentation sphere                          
   RDEP   =    1.993    radius for radial grids                                 
   QCUT   =   -4.246; QGAM   =    8.493    optimization parameters              
                                                                                
   Description                                                                  
     l     E      TYP  RCUT    TYP  RCUT                                        
     0   .000     23  1.900                                                     
     0   .000     23  1.900                                                     
     1   .000     23  1.900                                                     
     1   .000     23  1.900                                                     
     2   .000      7  1.900                                                     
  local pseudopotential read in
  partial core-charges read in
  atomic valenz-charges read in
  non local Contribution for L=           0  read in
    real space projection operators read in
  non local Contribution for L=           0  read in
    real space projection operators read in
  non local Contribution for L=           1  read in
    real space projection operators read in
  non local Contribution for L=           1  read in
    real space projection operators read in
    PAW grid and wavefunctions read in
 
   number of l-projection  operators is LMAX  =           4
   number of lm-projection operators is LMMAX =           8
 
 POTCAR:   PAW_PBE O 08Apr2002                    
   VRHFIN =O: s2p4                                                              
   LEXCH  = PE                                                                  
   EATOM  =   432.3788 eV,   31.7789 Ry                                         
                                                                                
   TITEL  = PAW_PBE O 08Apr2002                                                 
   LULTRA =        F    use ultrasoft PP ?                                      
   IUNSCR =        0    unscreen: 0-lin 1-nonlin 2-no                           
   RPACOR =     .000    partial core radius                                     
   POMASS =   16.000; ZVAL   =    6.000    mass and valenz                      
   RCORE  =    1.520    outmost cutoff radius                                   
   RWIGS  =    1.550; RWIGS  =     .820    wigner-seitz radius (au A)           
   ENMAX  =  400.000; ENMIN  =  300.000 eV                                      
   ICORE  =        2    local potential                                         
   LCOR   =        T    correct aug charges                                     
   LPAW   =        T    paw PP                                                  
   EAUG   =  605.392                                                            
   DEXC   =     .000                                                            
   RMAX   =    2.264    core radius for proj-oper                               
   RAUG   =    1.300    factor for augmentation sphere                          
   RDEP   =    1.550    radius for radial grids                                 
   QCUT   =   -5.520; QGAM   =   11.041    optimization parameters              
                                                                                
   Description                                                                  
     l     E      TYP  RCUT    TYP  RCUT                                        
     0   .000     23  1.200                                                     
     0  -.700     23  1.200                                                     
     1   .000     23  1.520                                                     
     1   .600     23  1.520                                                     
     2   .000      7  1.500                                                     
  local pseudopotential read in
  atomic valenz-charges read in
  non local Contribution for L=           0  read in
    real space projection operators read in
  non local Contribution for L=           0  read in
    real space projection operators read in
  non local Contribution for L=           1  read in
    real space projection operators read in
  non local Contribution for L=           1  read in
    real space projection operators read in
    PAW grid and wavefunctions read in
 
   number of l-projection  operators is LMAX  =           4
   number of lm-projection operators is LMMAX =           8
 
 Optimization of the real space projectors (new method)

 maximal supplied QI-value         = 19.84
 optimisation between [QCUT,QGAM] = [ 14.88, 29.76] = [ 62.02,248.06] Ry 
 Optimized for a Real-space Cutoff    1.03 Angstroem

   l    n(q)    QCUT    max X(q) W(low)/X(q) W(high)/X(q)  e(spline) 
   0      9    14.882     8.708    0.21E-04    0.37E-05    0.10E-07
   0      9    14.882   106.241    0.37E-03    0.17E-03    0.12E-06
   1      9    14.882     5.901    0.83E-05    0.55E-04    0.15E-07
   1      9    14.882    73.241    0.16E-03    0.47E-03    0.21E-06
 Optimization of the real space projectors (new method)

 maximal supplied QI-value         = 24.76
 optimisation between [QCUT,QGAM] = [ 14.85, 29.71] = [ 61.78,247.12] Ry 
 Optimized for a Real-space Cutoff    0.95 Angstroem

   l    n(q)    QCUT    max X(q) W(low)/X(q) W(high)/X(q)  e(spline) 
   0      8    14.853     4.192    0.27E-04    0.47E-04    0.20E-07
   0      8    14.853     8.473    0.19E-03    0.25E-03    0.16E-06
   1      8    14.853     2.474    0.62E-04    0.63E-05    0.21E-07
   1      8    14.853     3.912    0.44E-03    0.10E-03    0.10E-06
 PAW_PBE Si 05Jan2001                   :
 energy of atom  1       EATOM= -103.0669
 kinetic energy error for atom=    0.0001 (will be added to EATOM!!)
 PAW_PBE O 08Apr2002                    :
 energy of atom  2       EATOM= -432.3788
 kinetic energy error for atom=    0.0031 (will be added to EATOM!!)
 
 
 POSCAR:  SiO2                                   
  positions in direct lattice
  No initial velocities read in
 exchange correlation table for  LEXCH =        8
   RHO(1)=    0.500       N(1)  =     2000
   RHO(2)=  100.500       N(2)  =     4000
 


--------------------------------------------------------------------------------------------------------


 ion  position               nearest neighbor table
   1  0.470  0.000  0.667-   6 1.60   4 1.60   9 1.62   5 1.62   3 3.06   3 3.06   2 3.06   2 3.06

   2  0.530  0.530  0.000-   8 1.60   5 1.60   7 1.62   4 1.62   1 3.06   3 3.06   3 3.06   1 3.06

   3  0.000  0.470  0.333-   9 1.60   7 1.60   6 1.62   8 1.62   1 3.06   1 3.06   2 3.06   2 3.06

   4  0.414  0.266  0.786-   1 1.60   2 1.62
   5  0.586  0.852  0.881-   2 1.60   1 1.62
   6  0.148  0.734  0.548-   1 1.60   3 1.62
   7  0.266  0.414  0.214-   3 1.60   2 1.62
   8  0.852  0.586  0.119-   2 1.60   3 1.62
   9  0.734  0.148  0.452-   3 1.60   1 1.62
 
  LATTYP: Found a hexagonal cell.
 ALAT       =     4.9138000000
 C/A-ratio  =     1.1000040702
  
  Lattice vectors:
  
 A1 = (   4.9138000000,   0.0000000000,   0.0000000000)
 A2 = (  -2.4569000000,   4.2554756291,   0.0000000000)
 A3 = (   0.0000000000,   0.0000000000,   5.4052000000)


Analysis of symmetry for initial positions (statically):
=====================================================================
 Subroutine PRICEL returns:
 Original cell was already a primitive cell.
 

 Routine SETGRP: Setting up the symmetry group for a 
 hexagonal supercell.


 Subroutine GETGRP returns: Found  6 space group operations
 (whereof  2 operations were pure point group operations)
 out of a pool of 24 trial point group operations.


The static configuration has the point symmetry C_2 .
 The point group associated with its full space group is D_3 .


Analysis of symmetry for dynamics (positions and initial velocities):
=====================================================================
 Subroutine PRICEL returns:
 Original cell was already a primitive cell.
 

 Routine SETGRP: Setting up the symmetry group for a 
 hexagonal supercell.


 Subroutine GETGRP returns: Found  6 space group operations
 (whereof  2 operations were pure point group operations)
 out of a pool of 24 trial point group operations.


The dynamic configuration has the point symmetry C_2 .
 The point group associated with its full space group is D_3 .


 Subroutine INISYM returns: Found  6 space group operations
 (whereof  2 operations are pure point group operations),
 and found     1 'primitive' translations

 
 
 KPOINTS: k-density: 4.0                          

Automatic generation of k-mesh.
Space group operators:
 irot       det(A)        alpha          n_x          n_y          n_z        tau_x        tau_y        tau_z
    1     1.000000     0.000000     1.000000     0.000000     0.000000     0.000000     0.000000     0.000000
    2     1.000000   180.000000    -0.500000    -0.866025     0.000000     0.000000     0.000000     0.000000
    3     1.000000   120.000000     0.000000     0.000000    -1.000000     0.000000     0.000000     0.666667
    4     1.000000   120.000000     0.000000     0.000000     1.000000     0.000000     0.000000     0.333333
    5     1.000000   180.000000     1.000000    -0.000000     0.000000     0.000000     0.000000     0.333333
    6     1.000000   180.000000     0.500000    -0.866025     0.000000     0.000000     0.000000     0.666667
 
 Subroutine IBZKPT returns following result:
 ===========================================
 
 Found     27 irreducible k-points:
 
 Following reciprocal coordinates:
            Coordinates               Weight
  0.000000  0.000000  0.000000      1.000000
  0.166667  0.000000  0.000000      6.000000
  0.333333  0.000000  0.000000      6.000000
  0.500000  0.000000  0.000000      3.000000
  0.166667  0.166667  0.000000      6.000000
  0.333333  0.166667  0.000000     12.000000
  0.333333  0.333333  0.000000      2.000000
  0.000000  0.000000  0.200000      2.000000
  0.166667  0.000000  0.200000      6.000000
  0.333333  0.000000  0.200000      6.000000
  0.500000  0.000000  0.200000      6.000000
 -0.333333  0.000000  0.200000      6.000000
 -0.166667  0.000000  0.200000      6.000000
  0.166667  0.166667  0.200000     12.000000
  0.333333  0.166667  0.200000     12.000000
  0.500000  0.166667  0.200000     12.000000
  0.333333  0.333333  0.200000      4.000000
  0.000000  0.000000  0.400000      2.000000
  0.166667  0.000000  0.400000      6.000000
  0.333333  0.000000  0.400000      6.000000
  0.500000  0.000000  0.400000      6.000000
 -0.333333  0.000000  0.400000      6.000000
 -0.166667  0.000000  0.400000      6.000000
  0.166667  0.166667  0.400000     12.000000
  0.333333  0.166667  0.400000     12.000000
  0.500000  0.166667  0.400000     12.000000
  0.333333  0.333333  0.400000      4.000000
 
 Following cartesian coordinates:
            Coordinates               Weight
  0.000000  0.000000  0.000000      1.000000
  0.033918  0.019583  0.000000      6.000000
  0.067836  0.039165  0.000000      6.000000
  0.101754  0.058748  0.000000      3.000000
  0.033918  0.058748  0.000000      6.000000
  0.067836  0.078330  0.000000     12.000000
  0.067836  0.117496  0.000000      2.000000
  0.000000  0.000000  0.037001      2.000000
  0.033918  0.019583  0.037001      6.000000
  0.067836  0.039165  0.037001      6.000000
  0.101754  0.058748  0.037001      6.000000
 -0.067836 -0.039165  0.037001      6.000000
 -0.033918 -0.019583  0.037001      6.000000
  0.033918  0.058748  0.037001     12.000000
  0.067836  0.078330  0.037001     12.000000
  0.101754  0.097913  0.037001     12.000000
  0.067836  0.117496  0.037001      4.000000
  0.000000  0.000000  0.074003      2.000000
  0.033918  0.019583  0.074003      6.000000
  0.067836  0.039165  0.074003      6.000000
  0.101754  0.058748  0.074003      6.000000
 -0.067836 -0.039165  0.074003      6.000000
 -0.033918 -0.019583  0.074003      6.000000
  0.033918  0.058748  0.074003     12.000000
  0.067836  0.078330  0.074003     12.000000
  0.101754  0.097913  0.074003     12.000000
  0.067836  0.117496  0.074003      4.000000
 
 TETIRR: Found    231 inequivalent tetrahedra from     1080


--------------------------------------------------------------------------------------------------------




 Dimension of arrays:
   k-points           NKPTS =     27   k-points in BZ     NKDIM =     27   number of bands    NBANDS=     30
   number of dos      NEDOS =    301   number of ions     NIONS =      9
   non local maximal  LDIM  =      4   non local SUM 2l+1 LMDIM =      8
   total plane-waves  NPLWV =  51840
   max r-space proj   IRMAX =   2179   max aug-charges    IRDMAX=  15533
   dimension x,y,z NGX =    36 NGY =   36 NGZ =   40
   dimension x,y,z NGXF=    72 NGYF=   72 NGZF=   80
   support grid    NGXF=    72 NGYF=   72 NGZF=   80
   ions per type =               3   6
   NGX,Y,Z   is equivalent  to a cutoff of  12.18, 12.18, 12.30 a.u.
   NGXF,Y,Z  is equivalent  to a cutoff of  24.36, 24.36, 24.61 a.u.

 SYSTEM =  unknown system                          
 POSCAR =   SiO2                                   

 Startparameter for this run:
   NWRITE =      2    write-flag & timer
   PREC   = normal    normal or accurate (medium, high low for compatibility)
   ISTART =      0    job   : 0-new  1-cont  2-samecut
   ICHARG =      2    charge: 1-file 2-atom 10-const
   ISPIN  =      1    spin polarized calculation?
   LNONCOLLINEAR =      F non collinear calculations
   LSORBIT =      F    spin-orbit coupling
   INIWAV =      1    electr: 0-lowe 1-rand  2-diag
   LASPH  =      F    aspherical Exc in radial PAW
   METAGGA=      F    non-selfconsistent MetaGGA calc.

 Electronic Relaxation 1
   ENCUT  =  850.0 eV  62.47 Ry    7.90 a.u.  11.68 11.68 12.85*2*pi/ulx,y,z
   ENINI  =  850.0     initial cutoff
   ENAUG  =  605.4 eV  augmentation charge cutoff
   NELM   =     60;   NELMIN=  4; NELMDL= -5     # of ELM steps 
   EDIFF  = 0.1E-04   stopping-criterion for ELM
   LREAL  =      T    real-space projection
   NLSPLINE    = F    spline interpolate recip. space projectors
   LCOMPAT=      F    compatible to vasp.4.4
   GGA_COMPAT  = T    GGA compatible to vasp.4.4-vasp.4.6
   LMAXPAW     = -100 max onsite density
   LMAXMIX     =    2 max onsite mixed and CHGCAR
   VOSKOWN=      0    Vosko Wilk Nusair interpolation
   ROPT   =   -0.00050  -0.00050
 Ionic relaxation
   EDIFFG = 0.1E-03   stopping-criterion for IOM
   NSW    =      0    number of steps for IOM
   NBLOCK =      1;   KBLOCK =      1    inner block; outer block 
   IBRION =     -1    ionic relax: 0-MD 1-quasi-New 2-CG
   NFREE  =      0    steps in history (QN), initial steepest desc. (CG)
   ISIF   =      2    stress and relaxation
   IWAVPR =     10    prediction:  0-non 1-charg 2-wave 3-comb
   ISYM   =      2    0-nonsym 1-usesym 2-fastsym
   LCORR  =      T    Harris-Foulkes like correction to forces

   POTIM  = 0.5000    time-step for ionic-motion
   TEIN   =    0.0    initial temperature
   TEBEG  =    0.0;   TEEND  =   0.0 temperature during run
   SMASS  =  -3.00    Nose mass-parameter (am)
   estimated Nose-frequenzy (Omega)   =  0.10E-29 period in steps =****** mass=  -0.552E-27a.u.
   SCALEE = 1.0000    scale energy and forces
   NPACO  =    256;   APACO  = 16.0  distance and # of slots for P.C.
   PSTRESS=    0.0 pullay stress

  Mass of Ions in am
   POMASS =  28.09 16.00
  Ionic Valenz
   ZVAL   =   4.00  6.00
  Atomic Wigner-Seitz radii
   RWIGS  =  -1.00 -1.00
  virtual crystal weights 
   VCA    =   1.00  1.00
   NELECT =      48.0000    total number of electrons
   NUPDOWN=      -1.0000    fix difference up-down

 DOS related values:
   EMIN   =  10.00;   EMAX   =-10.00  energy-range for DOS
   EFERMI =   0.00
   ISMEAR =    -5;   SIGMA  =   0.20  broadening in eV -4-tet -1-fermi 0-gaus

 Electronic relaxation 2 (details)
   IALGO  =     68    algorithm
   LDIAG  =      T    sub-space diagonalisation (order eigenvalues)
   LSUBROT=      F    optimize rotation matrix (better conditioning)
   TURBO    =      0    0=normal 1=particle mesh
   IRESTART =      0    0=no restart 2=restart with 2 vectors
   NREBOOT  =      0    no. of reboots
   NMIN     =      0    reboot dimension
   EREF     =   0.00    reference energy to select bands
   IMIX   =      4    mixing-type and parameters
     AMIX     =   0.40;   BMIX     =  1.00
     AMIX_MAG =   1.60;   BMIX_MAG =  1.00
     AMIN     =   0.10
     WC   =   100.;   INIMIX=   1;  MIXPRE=   1;  MAXMIX= -45

 Intra band minimization:
   WEIMIN = 0.0000     energy-eigenvalue tresh-hold
   EBREAK =  0.83E-07  absolut break condition
   DEPER  =   0.30     relativ break condition  

   TIME   =   0.40     timestep for ELM

  volume/ion in A,a.u.               =      12.56        84.75
  Fermi-wavevector in a.u.,A,eV,Ry     =   1.230541  2.325386 20.602369  1.514231
  Thomas-Fermi vector in A             =   2.365386
 
 Write flags
   LWAVE        =      F    write WAVECAR
   LDOWNSAMPLE  =      F    k-point downsampling of WAVECAR
   LCHARG       =      T    write CHGCAR
   LVTOT        =      F    write LOCPOT, total local potential
   LVHAR        =      F    write LOCPOT, Hartree potential only
   LELF         =      F    write electronic localiz. function (ELF)
   LORBIT       =      0    0 simple, 1 ext, 2 COOP (PROOUT), +10 PAW based schemes


 Dipole corrections
   LMONO  =      F    monopole corrections only (constant potential shift)
   LDIPOL =      F    correct potential (dipole corrections)
   IDIPOL =      0    1-x, 2-y, 3-z, 4-all directions 
   EPSILON=  1.0000000 bulk dielectric constant

 Exchange correlation treatment:
   GGA     =    --    GGA type
   LEXCH   =     8    internal setting for exchange type
   VOSKOWN=      0    Vosko Wilk Nusair interpolation
   LHFCALC =     F    Hartree Fock is set to
   LHFONE  =     F    Hartree Fock one center treatment
   AEXX    =    0.0000 exact exchange contribution

 Linear response parameters
   LEPSILON=     F    determine dielectric tensor
   LRPA    =     F    only Hartree local field effects (RPA)
   LNABLA  =     F    use nabla operator in PAW spheres
   LVEL    =     F    velocity operator in full k-point grid
   LINTERFAST=   F  fast interpolation
   KINTER  =     0    interpolate to denser k-point grid
   CSHIFT  =0.1000    complex shift for real part using Kramers Kronig
   OMEGAMAX=  -1.0    maximum frequency
   DEG_THRESHOLD= 0.2000000E-02 threshold for treating states as degnerate
   RTIME   =   -0.100 relaxation time in fs
  (WPLASMAI=    0.000 imaginary part of plasma frequency in eV, 0.658/RTIME)
   DFIELD  = 0.0000000 0.0000000 0.0000000 field for delta impulse in time
 
 Orbital magnetization related:
   ORBITALMAG=     F  switch on orbital magnetization
   LCHIMAG   =     F  perturbation theory with respect to B field
   DQ        =  0.001000  dq finite difference perturbation B field
   LLRAUG    =     F  two centre corrections for induced B field



--------------------------------------------------------------------------------------------------------


 Static calculation
 charge density and potential will be updated during run
 non-spin polarized calculation
 RMM-DIIS sequential band-by-band and
  variant of blocked Davidson during initial phase
 perform sub-space diagonalisation
    before iterative eigenvector-optimisation
 modified Broyden-mixing scheme, WC =      100.0
 initial mixing is a Kerker type mixing with AMIX =  0.4000 and BMIX =      1.0000
 Hartree-type preconditioning will be used
 using additional bands            6
 real space projection scheme for non local part
 use partial core corrections
 calculate Harris-corrections to forces 
   (improved forces if not selfconsistent)
 use gradient corrections 
 use of overlap-Matrix (Vanderbilt PP)
 Fermi weights with tetrahedron method with Bloechl corrections


--------------------------------------------------------------------------------------------------------


  energy-cutoff  :      850.00
  volume of cell :      113.03
      direct lattice vectors                 reciprocal lattice vectors
     4.913800000  0.000000000  0.000000000     0.203508486  0.117495679  0.000000000
    -2.456900000  4.255475629  0.000000000     0.000000000  0.234991359  0.000000000
     0.000000000  0.000000000  5.405200000     0.000000000  0.000000000  0.185007030

  length of vectors
     4.913800000  4.913800000  5.405200000     0.234991359  0.234991359  0.185007030


 
 k-points in units of 2pi/SCALE and weight: k-density: 4.0                          
   0.00000000  0.00000000  0.00000000       0.006
   0.03391808  0.01958261  0.00000000       0.033
   0.06783616  0.03916523  0.00000000       0.033
   0.10175424  0.05874784  0.00000000       0.017
   0.03391808  0.05874784  0.00000000       0.033
   0.06783616  0.07833045  0.00000000       0.067
   0.06783616  0.11749568  0.00000000       0.011
   0.00000000  0.00000000  0.03700141       0.011
   0.03391808  0.01958261  0.03700141       0.033
   0.06783616  0.03916523  0.03700141       0.033
   0.10175424  0.05874784  0.03700141       0.033
  -0.06783616 -0.03916523  0.03700141       0.033
  -0.03391808 -0.01958261  0.03700141       0.033
   0.03391808  0.05874784  0.03700141       0.067
   0.06783616  0.07833045  0.03700141       0.067
   0.10175424  0.09791307  0.03700141       0.067
   0.06783616  0.11749568  0.03700141       0.022
   0.00000000  0.00000000  0.07400281       0.011
   0.03391808  0.01958261  0.07400281       0.033
   0.06783616  0.03916523  0.07400281       0.033
   0.10175424  0.05874784  0.07400281       0.033
  -0.06783616 -0.03916523  0.07400281       0.033
  -0.03391808 -0.01958261  0.07400281       0.033
   0.03391808  0.05874784  0.07400281       0.067
   0.06783616  0.07833045  0.07400281       0.067
   0.10175424  0.09791307  0.07400281       0.067
   0.06783616  0.11749568  0.07400281       0.022
 
 k-points in reciprocal lattice and weights: k-density: 4.0                          
   0.00000000  0.00000000  0.00000000       0.006
   0.16666667  0.00000000  0.00000000       0.033
   0.33333333  0.00000000  0.00000000       0.033
   0.50000000  0.00000000  0.00000000       0.017
   0.16666667  0.16666667  0.00000000       0.033
   0.33333333  0.16666667  0.00000000       0.067
   0.33333333  0.33333333  0.00000000       0.011
   0.00000000  0.00000000  0.20000000       0.011
   0.16666667  0.00000000  0.20000000       0.033
   0.33333333  0.00000000  0.20000000       0.033
   0.50000000  0.00000000  0.20000000       0.033
  -0.33333333  0.00000000  0.20000000       0.033
  -0.16666667  0.00000000  0.20000000       0.033
   0.16666667  0.16666667  0.20000000       0.067
   0.33333333  0.16666667  0.20000000       0.067
   0.50000000  0.16666667  0.20000000       0.067
   0.33333333  0.33333333  0.20000000       0.022
   0.00000000  0.00000000  0.40000000       0.011
   0.16666667  0.00000000  0.40000000       0.033
   0.33333333  0.00000000  0.40000000       0.033
   0.50000000  0.00000000  0.40000000       0.033
  -0.33333333  0.00000000  0.40000000       0.033
  -0.16666667  0.00000000  0.40000000       0.033
   0.16666667  0.16666667  0.40000000       0.067
   0.33333333  0.16666667  0.40000000       0.067
   0.50000000  0.16666667  0.40000000       0.067
   0.33333333  0.33333333  0.40000000       0.022
 
 position of ions in fractional coordinates (direct lattice) 
   0.46980000  0.00000000  0.66666667
   0.53020000  0.53020000  0.00000000
   0.00000000  0.46980000  0.33333333
   0.41450000  0.26620000  0.78560000
   0.58550000  0.85170000  0.88106667
   0.14830000  0.73380000  0.54773333
   0.26620000  0.41450000  0.21440000
   0.85170000  0.58550000  0.11893333
   0.73380000  0.14830000  0.45226667
 
 position of ions in cartesian coordinates  (Angst):
   2.30850324  0.00000000  3.60346667
   1.30264838  2.25625318  0.00000000
  -1.15425162  1.99922245  1.80173333
   1.38274332  1.13280761  4.24632512
   0.78448817  3.62438859  4.76234155
  -1.07415668  3.12266802  2.96060821
   0.28966851  1.76389465  1.15887488
   2.74656851  2.49158098  0.64285845
   3.24138817  0.63108704  2.44459179
 


--------------------------------------------------------------------------------------------------------


 k-point  1 :   0.0000 0.0000 0.0000  plane waves:    6367
 k-point  2 :   0.1667 0.0000 0.0000  plane waves:    6374
 k-point  3 :   0.3333 0.0000 0.0000  plane waves:    6350
 k-point  4 :   0.5000 0.0000 0.0000  plane waves:    6372
 k-point  5 :   0.1667 0.1667 0.0000  plane waves:    6358
 k-point  6 :   0.3333 0.1667 0.0000  plane waves:    6344
 k-point  7 :   0.3333 0.3333 0.0000  plane waves:    6336
 k-point  8 :   0.0000 0.0000 0.2000  plane waves:    6374
 k-point  9 :   0.1667 0.0000 0.2000  plane waves:    6364
 k-point 10 :   0.3333 0.0000 0.2000  plane waves:    6356
 k-point 11 :   0.5000 0.0000 0.2000  plane waves:    6380
 k-point 12 :  -0.3333 0.0000 0.2000  plane waves:    6356
 k-point 13 :  -0.1667 0.0000 0.2000  plane waves:    6364
 k-point 14 :   0.1667 0.1667 0.2000  plane waves:    6355
 k-point 15 :   0.3333 0.1667 0.2000  plane waves:    6350
 k-point 16 :   0.5000 0.1667 0.2000  plane waves:    6350
 k-point 17 :   0.3333 0.3333 0.2000  plane waves:    6339
 k-point 18 :   0.0000 0.0000 0.4000  plane waves:    6344
 k-point 19 :   0.1667 0.0000 0.4000  plane waves:    6377
 k-point 20 :   0.3333 0.0000 0.4000  plane waves:    6358
 k-point 21 :   0.5000 0.0000 0.4000  plane waves:    6364
 k-point 22 :  -0.3333 0.0000 0.4000  plane waves:    6358
 k-point 23 :  -0.1667 0.0000 0.4000  plane waves:    6377
 k-point 24 :   0.1667 0.1667 0.4000  plane waves:    6359
 k-point 25 :   0.3333 0.1667 0.4000  plane waves:    6366
 k-point 26 :   0.5000 0.1667 0.4000  plane waves:    6366
 k-point 27 :   0.3333 0.3333 0.4000  plane waves:    6387

 maximum and minimum number of plane-waves per node :      3201     3153

 maximum number of plane-waves:      6387
 maximum index in each direction: 
   IXMAX=   12   IYMAX=   11   IZMAX=   12
   IXMIN=  -12   IYMIN=  -12   IZMIN=  -13


 real space projection operators:
  total allocation   :        982.44 KBytes
  max/ min on nodes  :        491.25        491.19


 parallel 3D FFT for wavefunctions:
    minimum data exchange during FFTs selected (reduces bandwidth)
 parallel 3D FFT for charge:
    minimum data exchange during FFTs selected (reduces bandwidth)


 total amount of memory used by VASP MPI-rank0    63272. kBytes
=======================================================================

   base      :      30000. kBytes
   nonlr-proj:        932. kBytes
   fftplans  :       4361. kBytes
   grid      :       6956. kBytes
   one-center:         15. kBytes
   wavefun   :      21008. kBytes
 
     INWAV:  cpu time    0.0001: real time    0.0003
 Broyden mixing: mesh for mixing (old mesh)
   NGX = 23   NGY = 23   NGZ = 25
  (NGX  = 72   NGY  = 72   NGZ  = 80)
  gives a total of  13225 points

 initial charge density was supplied:
 charge density of overlapping atoms calculated
 number of electron      48.0000000 magnetization 
 keeping initial charge density in first step


--------------------------------------------------------------------------------------------------------


 Maximum index for non-local projection operator         1040
 Maximum index for augmentation-charges         3752 (set IRDMAX)


--------------------------------------------------------------------------------------------------------


 First call to EWALD:  gamma=   0.367
 Maximum number of real-space cells 3x 3x 3
 Maximum number of reciprocal cells 3x 3x 3

    FEWALD:  cpu time    0.0016: real time    0.0016


--------------------------------------- Iteration      1(   1)  ---------------------------------------


    POTLOK:  cpu time    0.0680: real time    0.1741
    SETDIJ:  cpu time    0.0059: real time    0.0083
     EDDAV:  cpu time    1.9470: real time    1.9845
 BZINTS: Fermi energy: 18.700511; 48.000000 electrons
         Band energy:  61.950343;  BLOECHL correction: -0.177243
       DOS:  cpu time    0.0125: real time    0.0131
    --------------------------------------------
      LOOP:  cpu time    2.0334: real time    2.1800

 eigenvalue-minimisations  :  1620
 total energy-change (2. order) : 0.3944844E+03  (-0.3294936E+04)
 number of electron      48.0000000 magnetization 
 augmentation part       48.0000000 magnetization 

 Free energy of the ion-electron system (eV)
  ---------------------------------------------------
  alpha Z        PSCENC =        69.72428684
  Ewald energy   TEWEN  =     -1887.17190222
  -Hartree energ DENC   =      -937.16683993
  -exchange      EXHF   =         0.00000000
  -V(xc)+E(xc)   XCENC  =       142.01202145
  PAW double counting   =      1574.92322788    -1533.24131965
  entropy T*S    EENTRO =         0.00000000
  eigenvalues    EBANDS =        61.95034327
  atomic energy  EATOM  =      2903.45457031
  Solvation  Ediel_sol  =         0.00000000
  ---------------------------------------------------
  free energy    TOTEN  =       394.48438796 eV

  energy without entropy =      394.48438796  energy(sigma->0) =      394.48438796


--------------------------------------------------------------------------------------------------------




--------------------------------------- Iteration      1(   2)  ---------------------------------------


     EDDAV:  cpu time    2.4386: real time    2.4654
 BZINTS: Fermi energy: -0.760678; 48.000000 electrons
         Band energy:-387.410166;  BLOECHL correction:  0.000000
       DOS:  cpu time    0.0029: real time    0.0029
    --------------------------------------------
      LOOP:  cpu time    2.4415: real time    2.4683

 eigenvalue-minimisations  :  2186
 total energy-change (2. order) :-0.4493605E+03  (-0.4376140E+03)
 number of electron      48.0000000 magnetization 
 augmentation part       48.0000000 magnetization 

 Free energy of the ion-electron system (eV)
  ---------------------------------------------------
  alpha Z        PSCENC =        69.72428684
  Ewald energy   TEWEN  =     -1887.17190222
  -Hartree energ DENC   =      -937.16683993
  -exchange      EXHF   =         0.00000000
  -V(xc)+E(xc)   XCENC  =       142.01202145
  PAW double counting   =      1574.92322788    -1533.24131965
  entropy T*S    EENTRO =         0.00000000
  eigenvalues    EBANDS =      -387.41016617
  atomic energy  EATOM  =      2903.45457031
  Solvation  Ediel_sol  =         0.00000000
  ---------------------------------------------------
  free energy    TOTEN  =       -54.87612148 eV

  energy without entropy =      -54.87612148  energy(sigma->0) =      -54.87612148


--------------------------------------------------------------------------------------------------------




--------------------------------------- Iteration      1(   3)  ---------------------------------------


     EDDAV:  cpu time    2.1997: real time    2.2241
 BZINTS: Fermi energy: -2.125627; 48.000000 electrons
         Band energy:-412.868166;  BLOECHL correction:  0.000000
       DOS:  cpu time    0.0024: real time    0.0024
    --------------------------------------------
      LOOP:  cpu time    2.2021: real time    2.2266

 eigenvalue-minimisations  :  1926
 total energy-change (2. order) :-0.2545800E+02  (-0.2536755E+02)
 number of electron      48.0000000 magnetization 
 augmentation part       48.0000000 magnetization 

 Free energy of the ion-electron system (eV)
  ---------------------------------------------------
  alpha Z        PSCENC =        69.72428684
  Ewald energy   TEWEN  =     -1887.17190222
  -Hartree energ DENC   =      -937.16683993
  -exchange      EXHF   =         0.00000000
  -V(xc)+E(xc)   XCENC  =       142.01202145
  PAW double counting   =      1574.92322788    -1533.24131965
  entropy T*S    EENTRO =         0.00000000
  eigenvalues    EBANDS =      -412.86816612
  atomic energy  EATOM  =      2903.45457031
  Solvation  Ediel_sol  =         0.00000000
  ---------------------------------------------------
  free energy    TOTEN  =       -80.33412143 eV

  energy without entropy =      -80.33412143  energy(sigma->0) =      -80.33412143


--------------------------------------------------------------------------------------------------------




--------------------------------------- Iteration      1(   4)  ---------------------------------------


     EDDAV:  cpu time    2.2099: real time    2.2341
 BZINTS: Fermi energy: -2.168825; 48.000000 electrons
         Band energy:-413.206106;  BLOECHL correction:  0.000000
       DOS:  cpu time    0.0024: real time    0.0024
    --------------------------------------------
      LOOP:  cpu time    2.2123: real time    2.2366

 eigenvalue-minimisations  :  1938
 total energy-change (2. order) :-0.3379399E+00  (-0.3373325E+00)
 number of electron      48.0000000 magnetization 
 augmentation part       48.0000000 magnetization 

 Free energy of the ion-electron system (eV)
  ---------------------------------------------------
  alpha Z        PSCENC =        69.72428684
  Ewald energy   TEWEN  =     -1887.17190222
  -Hartree energ DENC   =      -937.16683993
  -exchange      EXHF   =         0.00000000
  -V(xc)+E(xc)   XCENC  =       142.01202145
  PAW double counting   =      1574.92322788    -1533.24131965
  entropy T*S    EENTRO =         0.00000000
  eigenvalues    EBANDS =      -413.20610601
  atomic energy  EATOM  =      2903.45457031
  Solvation  Ediel_sol  =         0.00000000
  ---------------------------------------------------
  free energy    TOTEN  =       -80.67206132 eV

  energy without entropy =      -80.67206132  energy(sigma->0) =      -80.67206132


--------------------------------------------------------------------------------------------------------




--------------------------------------- Iteration      1(   5)  ---------------------------------------


     EDDAV:  cpu time    2.2056: real time    2.2416
 BZINTS: Fermi energy: -2.115196; 48.000000 electrons
         Band energy:-413.212037;  BLOECHL correction:  0.000000
       DOS:  cpu time    0.0025: real time    0.0025
    CHARGE:  cpu time    0.1733: real time    0.1747
    MIXING:  cpu time    0.0022: real time    0.0027
    --------------------------------------------
      LOOP:  cpu time    2.3837: real time    2.4215

 eigenvalue-minimisations  :  1872
 total energy-change (2. order) :-0.5931264E-02  (-0.5929433E-02)
 number of electron      48.0000009 magnetization 
 augmentation part        4.4724028 magnetization 

 Broyden mixing:
  rms(total) = 0.18753E+01    rms(broyden)= 0.18753E+01
  rms(prec ) = 0.34969E+01
  weight for this iteration     100.00

 Free energy of the ion-electron system (eV)
  ---------------------------------------------------
  alpha Z        PSCENC =        69.72428684
  Ewald energy   TEWEN  =     -1887.17190222
  -Hartree energ DENC   =      -937.16683993
  -exchange      EXHF   =         0.00000000
  -V(xc)+E(xc)   XCENC  =       142.01202145
  PAW double counting   =      1574.92322788    -1533.24131965
  entropy T*S    EENTRO =         0.00000000
  eigenvalues    EBANDS =      -413.21203728
  atomic energy  EATOM  =      2903.45457031
  Solvation  Ediel_sol  =         0.00000000
  ---------------------------------------------------
  free energy    TOTEN  =       -80.67799259 eV

  energy without entropy =      -80.67799259  energy(sigma->0) =      -80.67799259


--------------------------------------------------------------------------------------------------------




--------------------------------------- Iteration      1(   6)  ---------------------------------------


    POTLOK:  cpu time    0.0613: real time    0.0631
    SETDIJ:  cpu time    0.0057: real time    0.0057
    EDDIAG:  cpu time    0.3504: real time    0.3550
  RMM-DIIS:  cpu time    1.3106: real time    1.3234
    ORTHCH:  cpu time    0.0407: real time    0.0410
 BZINTS: Fermi energy:  0.702015; 48.000000 electrons
         Band energy:-299.884661;  BLOECHL correction:  0.000000
       DOS:  cpu time    0.0024: real time    0.0024
    CHARGE:  cpu time    0.1196: real time    0.1206
    MIXING:  cpu time    0.0022: real time    0.0022
    --------------------------------------------
      LOOP:  cpu time    1.8929: real time    1.9135

 eigenvalue-minimisations  :  1714
 total energy-change (2. order) : 0.9596520E+01  (-0.4041522E+01)
 number of electron      48.0000008 magnetization 
 augmentation part        3.6506958 magnetization 

 Broyden mixing:
  rms(total) = 0.51291E+00    rms(broyden)= 0.51288E+00
  rms(prec ) = 0.81763E+00
  weight for this iteration     100.00

 eigenvalues of (default mixing * dielectric matrix)
  average eigenvalue GAMMA=   0.9960
  0.9960

 Free energy of the ion-electron system (eV)
  ---------------------------------------------------
  alpha Z        PSCENC =        69.72428684
  Ewald energy   TEWEN  =     -1887.17190222
  -Hartree energ DENC   =     -1045.98575725
  -exchange      EXHF   =         0.00000000
  -V(xc)+E(xc)   XCENC  =       149.31339295
  PAW double counting   =      1883.66200359    -1844.19340583
  entropy T*S    EENTRO =         0.00000000
  eigenvalues    EBANDS =      -299.88466100
  atomic energy  EATOM  =      2903.45457031
  Solvation  Ediel_sol  =         0.00000000
  ---------------------------------------------------
  free energy    TOTEN  =       -71.08147261 eV

  energy without entropy =      -71.08147261  energy(sigma->0) =      -71.08147261


--------------------------------------------------------------------------------------------------------




--------------------------------------- Iteration      1(   7)  ---------------------------------------


    POTLOK:  cpu time    0.0586: real time    0.0598
    SETDIJ:  cpu time    0.0056: real time    0.0057
    EDDIAG:  cpu time    0.3516: real time    0.3545
  RMM-DIIS:  cpu time    1.4673: real time    1.4821
    ORTHCH:  cpu time    0.0399: real time    0.0402
 BZINTS: Fermi energy:  1.004825; 48.000000 electrons
         Band energy:-283.927657;  BLOECHL correction:  0.000000
       DOS:  cpu time    0.0021: real time    0.0021
    CHARGE:  cpu time    0.1192: real time    0.1201
    MIXING:  cpu time    0.0023: real time    0.0023
    --------------------------------------------
      LOOP:  cpu time    2.0466: real time    2.0669

 eigenvalue-minimisations  :  1901
 total energy-change (2. order) : 0.2971712E-01  (-0.1500054E+00)
 number of electron      48.0000008 magnetization 
 augmentation part        3.5456531 magnetization 

 Broyden mixing:
  rms(total) = 0.33856E+00    rms(broyden)= 0.33856E+00
  rms(prec ) = 0.48174E+00
  weight for this iteration     100.00

 eigenvalues of (default mixing * dielectric matrix)
  average eigenvalue GAMMA=   1.7510
  1.1459  2.3562

 Free energy of the ion-electron system (eV)
  ---------------------------------------------------
  alpha Z        PSCENC =        69.72428684
  Ewald energy   TEWEN  =     -1887.17190222
  -Hartree energ DENC   =     -1062.89341597
  -exchange      EXHF   =         0.00000000
  -V(xc)+E(xc)   XCENC  =       150.46066540
  PAW double counting   =      1974.81693516    -1935.51523764
  entropy T*S    EENTRO =         0.00000000
  eigenvalues    EBANDS =      -283.92765737
  atomic energy  EATOM  =      2903.45457031
  Solvation  Ediel_sol  =         0.00000000
  ---------------------------------------------------
  free energy    TOTEN  =       -71.05175549 eV

  energy without entropy =      -71.05175549  energy(sigma->0) =      -71.05175549


--------------------------------------------------------------------------------------------------------




--------------------------------------- Iteration      1(   8)  ---------------------------------------


    POTLOK:  cpu time    0.0585: real time    0.0597
    SETDIJ:  cpu time    0.0056: real time    0.0056
    EDDIAG:  cpu time    0.3545: real time    0.3577
  RMM-DIIS:  cpu time    1.4941: real time    1.5105
    ORTHCH:  cpu time    0.0403: real time    0.0407
 BZINTS: Fermi energy:  1.003085; 48.000000 electrons
         Band energy:-280.565269;  BLOECHL correction:  0.000000
       DOS:  cpu time    0.0024: real time    0.0024
    CHARGE:  cpu time    0.1204: real time    0.1215
    MIXING:  cpu time    0.0025: real time    0.0025
    --------------------------------------------
      LOOP:  cpu time    2.0784: real time    2.1005

 eigenvalue-minimisations  :  1834
 total energy-change (2. order) :-0.1571352E-01  (-0.2545769E-01)
 number of electron      48.0000008 magnetization 
 augmentation part        3.5859226 magnetization 

 Broyden mixing:
  rms(total) = 0.62390E-01    rms(broyden)= 0.62389E-01
  rms(prec ) = 0.11572E+00
  weight for this iteration     100.00

 eigenvalues of (default mixing * dielectric matrix)
  average eigenvalue GAMMA=   1.5856
  2.5648  1.0961  1.0961

 Free energy of the ion-electron system (eV)
  ---------------------------------------------------
  alpha Z        PSCENC =        69.72428684
  Ewald energy   TEWEN  =     -1887.17190222
  -Hartree energ DENC   =     -1066.72701855
  -exchange      EXHF   =         0.00000000
  -V(xc)+E(xc)   XCENC  =       150.80518107
  PAW double counting   =      2048.28704479    -2008.87436205
  entropy T*S    EENTRO =         0.00000000
  eigenvalues    EBANDS =      -280.56526922
  atomic energy  EATOM  =      2903.45457031
  Solvation  Ediel_sol  =         0.00000000
  ---------------------------------------------------
  free energy    TOTEN  =       -71.06746901 eV

  energy without entropy =      -71.06746901  energy(sigma->0) =      -71.06746901


--------------------------------------------------------------------------------------------------------




--------------------------------------- Iteration      1(   9)  ---------------------------------------


    POTLOK:  cpu time    0.0604: real time    0.0618
    SETDIJ:  cpu time    0.0055: real time    0.0055
    EDDIAG:  cpu time    0.3569: real time    0.3601
  RMM-DIIS:  cpu time    1.5482: real time    1.5654
    ORTHCH:  cpu time    0.0407: real time    0.0410
 BZINTS: Fermi energy:  1.108734; 48.000000 electrons
         Band energy:-275.756754;  BLOECHL correction:  0.000000
       DOS:  cpu time    0.0021: real time    0.0021
    CHARGE:  cpu time    0.1203: real time    0.1212
    MIXING:  cpu time    0.0025: real time    0.0025
    --------------------------------------------
      LOOP:  cpu time    2.1366: real time    2.1598

 eigenvalue-minimisations  :  1934
 total energy-change (2. order) : 0.6985848E-02  (-0.5568327E-02)
 number of electron      48.0000008 magnetization 
 augmentation part        3.5604163 magnetization 

 Broyden mixing:
  rms(total) = 0.13334E-01    rms(broyden)= 0.13333E-01
  rms(prec ) = 0.19478E-01
  weight for this iteration     100.00

 eigenvalues of (default mixing * dielectric matrix)
  average eigenvalue GAMMA=   1.8797
  2.9610  2.4965  1.0306  1.0306

 Free energy of the ion-electron system (eV)
  ---------------------------------------------------
  alpha Z        PSCENC =        69.72428684
  Ewald energy   TEWEN  =     -1887.17190222
  -Hartree energ DENC   =     -1071.78987253
  -exchange      EXHF   =         0.00000000
  -V(xc)+E(xc)   XCENC  =       151.15289290
  PAW double counting   =      2059.92700293    -2020.60070721
  entropy T*S    EENTRO =         0.00000000
  eigenvalues    EBANDS =      -275.75675419
  atomic energy  EATOM  =      2903.45457031
  Solvation  Ediel_sol  =         0.00000000
  ---------------------------------------------------
  free energy    TOTEN  =       -71.06048317 eV

  energy without entropy =      -71.06048317  energy(sigma->0) =      -71.06048317


--------------------------------------------------------------------------------------------------------




--------------------------------------- Iteration      1(  10)  ---------------------------------------


    POTLOK:  cpu time    0.0596: real time    0.0607
    SETDIJ:  cpu time    0.0056: real time    0.0056
    EDDIAG:  cpu time    0.3582: real time    0.3615
  RMM-DIIS:  cpu time    1.5306: real time    1.5474
    ORTHCH:  cpu time    0.0411: real time    0.0415
 BZINTS: Fermi energy:  1.215118; 48.000000 electrons
         Band energy:-274.735453;  BLOECHL correction:  0.000000
       DOS:  cpu time    0.0024: real time    0.0024
    CHARGE:  cpu time    0.1198: real time    0.1207
    MIXING:  cpu time    0.0026: real time    0.0026
    --------------------------------------------
      LOOP:  cpu time    2.1198: real time    2.1424

 eigenvalue-minimisations  :  1897
 total energy-change (2. order) :-0.2979363E-02  (-0.1377574E-02)
 number of electron      48.0000008 magnetization 
 augmentation part        3.5496720 magnetization 

 Broyden mixing:
  rms(total) = 0.22744E-01    rms(broyden)= 0.22743E-01
  rms(prec ) = 0.38635E-01
  weight for this iteration     100.00

 eigenvalues of (default mixing * dielectric matrix)
  average eigenvalue GAMMA=   1.6774
  2.7966  2.4375  1.0720  1.0720  1.0091

 Free energy of the ion-electron system (eV)
  ---------------------------------------------------
  alpha Z        PSCENC =        69.72428684
  Ewald energy   TEWEN  =     -1887.17190222
  -Hartree energ DENC   =     -1072.86057206
  -exchange      EXHF   =         0.00000000
  -V(xc)+E(xc)   XCENC  =       151.22086463
  PAW double counting   =      2053.55345136    -2014.24870790
  entropy T*S    EENTRO =         0.00000000
  eigenvalues    EBANDS =      -274.73545350
  atomic energy  EATOM  =      2903.45457031
  Solvation  Ediel_sol  =         0.00000000
  ---------------------------------------------------
  free energy    TOTEN  =       -71.06346253 eV

  energy without entropy =      -71.06346253  energy(sigma->0) =      -71.06346253


--------------------------------------------------------------------------------------------------------




--------------------------------------- Iteration      1(  11)  ---------------------------------------


    POTLOK:  cpu time    0.0599: real time    0.0611
    SETDIJ:  cpu time    0.0057: real time    0.0057
    EDDIAG:  cpu time    0.3584: real time    0.3617
  RMM-DIIS:  cpu time    1.5436: real time    1.5605
    ORTHCH:  cpu time    0.0407: real time    0.0411
 BZINTS: Fermi energy:  1.116859; 48.000000 electrons
         Band energy:-275.697884;  BLOECHL correction:  0.000000
       DOS:  cpu time    0.0021: real time    0.0021
    CHARGE:  cpu time    0.1197: real time    0.1206
    MIXING:  cpu time    0.0026: real time    0.0027
    --------------------------------------------
      LOOP:  cpu time    2.1327: real time    2.1555

 eigenvalue-minimisations  :  1935
 total energy-change (2. order) : 0.1278753E-02  (-0.2544265E-03)
 number of electron      48.0000008 magnetization 
 augmentation part        3.5555237 magnetization 

 Broyden mixing:
  rms(total) = 0.62906E-02    rms(broyden)= 0.62905E-02
  rms(prec ) = 0.11004E-01
  weight for this iteration     100.00

 eigenvalues of (default mixing * dielectric matrix)
  average eigenvalue GAMMA=   1.7382
  2.9490  2.4700  1.7601  0.9540  1.1481  1.1481

 Free energy of the ion-electron system (eV)
  ---------------------------------------------------
  alpha Z        PSCENC =        69.72428684
  Ewald energy   TEWEN  =     -1887.17190222
  -Hartree energ DENC   =     -1071.84885928
  -exchange      EXHF   =         0.00000000
  -V(xc)+E(xc)   XCENC  =       151.15251826
  PAW double counting   =      2051.67314807    -2012.34806174
  entropy T*S    EENTRO =         0.00000000
  eigenvalues    EBANDS =      -275.69788402
  atomic energy  EATOM  =      2903.45457031
  Solvation  Ediel_sol  =         0.00000000
  ---------------------------------------------------
  free energy    TOTEN  =       -71.06218378 eV

  energy without entropy =      -71.06218378  energy(sigma->0) =      -71.06218378


--------------------------------------------------------------------------------------------------------




--------------------------------------- Iteration      1(  12)  ---------------------------------------


    POTLOK:  cpu time    0.0604: real time    0.0616
    SETDIJ:  cpu time    0.0057: real time    0.0057
    EDDIAG:  cpu time    0.3602: real time    0.3636
  RMM-DIIS:  cpu time    1.5353: real time    1.5518
    ORTHCH:  cpu time    0.0407: real time    0.0410
 BZINTS: Fermi energy:  1.113589; 48.000000 electrons
         Band energy:-276.016266;  BLOECHL correction:  0.000000
       DOS:  cpu time    0.0022: real time    0.0022
    CHARGE:  cpu time    0.1192: real time    0.1201
    MIXING:  cpu time    0.0028: real time    0.0028
    --------------------------------------------
      LOOP:  cpu time    2.1263: real time    2.1487

 eigenvalue-minimisations  :  1924
 total energy-change (2. order) : 0.4527423E-04  (-0.7970338E-04)
 number of electron      48.0000008 magnetization 
 augmentation part        3.5587575 magnetization 

 Broyden mixing:
  rms(total) = 0.83209E-03    rms(broyden)= 0.83155E-03
  rms(prec ) = 0.13633E-02
  weight for this iteration     100.00

 eigenvalues of (default mixing * dielectric matrix)
  average eigenvalue GAMMA=   1.6848
  2.9163  2.4229  2.0335  1.0016  1.0776  1.1709  1.1709

 Free energy of the ion-electron system (eV)
  ---------------------------------------------------
  alpha Z        PSCENC =        69.72428684
  Ewald energy   TEWEN  =     -1887.17190222
  -Hartree energ DENC   =     -1071.51227545
  -exchange      EXHF   =         0.00000000
  -V(xc)+E(xc)   XCENC  =       151.12801686
  PAW double counting   =      2050.93745578    -2011.60602438
  entropy T*S    EENTRO =         0.00000000
  eigenvalues    EBANDS =      -276.01626623
  atomic energy  EATOM  =      2903.45457031
  Solvation  Ediel_sol  =         0.00000000
  ---------------------------------------------------
  free energy    TOTEN  =       -71.06213850 eV

  energy without entropy =      -71.06213850  energy(sigma->0) =      -71.06213850


--------------------------------------------------------------------------------------------------------




--------------------------------------- Iteration      1(  13)  ---------------------------------------


    POTLOK:  cpu time    0.0591: real time    0.0603
    SETDIJ:  cpu time    0.0056: real time    0.0056
    EDDIAG:  cpu time    0.3606: real time    0.3641
  RMM-DIIS:  cpu time    1.1009: real time    1.1126
    ORTHCH:  cpu time    0.0411: real time    0.0415
 BZINTS: Fermi energy:  1.115200; 48.000000 electrons
         Band energy:-275.972645;  BLOECHL correction:  0.000000
       DOS:  cpu time    0.0021: real time    0.0021
    --------------------------------------------
      LOOP:  cpu time    1.5694: real time    1.5862

 eigenvalue-minimisations  :  1313
 total energy-change (2. order) :-0.9089176E-06  (-0.2019860E-05)
 number of electron      48.0000008 magnetization 
 augmentation part        3.5587575 magnetization 

 Free energy of the ion-electron system (eV)
  ---------------------------------------------------
  alpha Z        PSCENC =        69.72428684
  Ewald energy   TEWEN  =     -1887.17190222
  -Hartree energ DENC   =     -1071.55812934
  -exchange      EXHF   =         0.00000000
  -V(xc)+E(xc)   XCENC  =       151.13096762
  PAW double counting   =      2051.10112090    -2011.77040850
  entropy T*S    EENTRO =         0.00000000
  eigenvalues    EBANDS =      -275.97264503
  atomic energy  EATOM  =      2903.45457031
  Solvation  Ediel_sol  =         0.00000000
  ---------------------------------------------------
  free energy    TOTEN  =       -71.06213941 eV

  energy without entropy =      -71.06213941  energy(sigma->0) =      -71.06213941


--------------------------------------------------------------------------------------------------------




 average (electrostatic) potential at core
  the test charge radii are     0.9892  0.7215
  (the norm of the test charge is              1.0000)
       1 -86.3842       2 -86.3842       3 -86.3842       4 -72.3978       5 -72.3978
       6 -72.3978       7 -72.3978       8 -72.3978       9 -72.3978
 
 
 
 E-fermi :   1.1152     XC(G=0):  -9.2015     alpha+bet :-10.3416


 k-point     1 :       0.0000    0.0000    0.0000
  band No.  band energies     occupation 
      1     -18.3724      2.00000
      2     -16.8357      2.00000
      3     -16.8357      2.00000
      4     -16.2011      2.00000
      5     -16.1530      2.00000
      6     -16.1530      2.00000
      7      -7.1769      2.00000
      8      -7.1769      2.00000
      9      -4.3370      2.00000
     10      -4.3310      2.00000
     11      -4.1787      2.00000
     12      -4.1787      2.00000
     13      -1.8603      2.00000
     14      -1.8603      2.00000
     15      -1.6231      2.00000
     16      -1.3629      2.00000
     17      -0.4124      2.00000
     18      -0.4124      2.00000
     19      -0.3944      2.00000
     20       0.1087      2.00000
     21       0.1087      2.00000
     22       0.4180      2.00000
     23       0.7584      2.00000
     24       0.7584      2.00000
     25       7.1197      0.00000
     26      10.3976      0.00000
     27      10.3976      0.00000
     28      10.8989      0.00000
     29      10.8990      0.00000
     30      12.7572      0.00000

 k-point     2 :       0.1667    0.0000    0.0000
  band No.  band energies     occupation 
      1     -18.2909      2.00000
      2     -16.9300      2.00000
      3     -16.8238      2.00000
      4     -16.2207      2.00000
      5     -16.1701      2.00000
      6     -16.1595      2.00000
      7      -7.2145      2.00000
      8      -6.9953      2.00000
      9      -4.3770      2.00000
     10      -4.3510      2.00000
     11      -4.2795      2.00000
     12      -4.0182      2.00000
     13      -1.9855      2.00000
     14      -1.8005      2.00000
     15      -1.5929      2.00000
     16      -1.1966      2.00000
     17      -0.6858      2.00000
     18      -0.4512      2.00000
     19      -0.4058      2.00000
     20       0.0460      2.00000
     21       0.0987      2.00000
     22       0.3157      2.00000
     23       0.8217      2.00000
     24       0.8554      2.00000
     25       7.5417      0.00000
     26      10.3842      0.00000
     27      10.4444      0.00000
     28      10.9340      0.00000
     29      11.0423      0.00000
     30      12.3381      0.00000

 k-point     3 :       0.3333    0.0000    0.0000
  band No.  band energies     occupation 
      1     -18.0720      2.00000
      2     -17.1892      2.00000
      3     -16.7983      2.00000
      4     -16.2438      2.00000
      5     -16.1985      2.00000
      6     -16.1786      2.00000
      7      -7.2861      2.00000
      8      -6.5758      2.00000
      9      -4.6329      2.00000
     10      -4.3847      2.00000
     11      -4.3028      2.00000
     12      -3.7159      2.00000
     13      -2.0679      2.00000
     14      -1.6923      2.00000
     15      -1.5676      2.00000
     16      -1.2006      2.00000
     17      -1.0016      2.00000
     18      -0.5823      2.00000
     19      -0.4905      2.00000
     20      -0.0053      2.00000
     21       0.0640      2.00000
     22       0.2669      2.00000
     23       0.8496      2.00000
     24       0.9989      2.00000
     25       8.5405      0.00000
     26      10.4273      0.00000
     27      10.5547      0.00000
     28      11.0550      0.00000
     29      11.3925      0.00000
     30      11.7547      0.00000

 k-point     4 :       0.5000    0.0000    0.0000
  band No.  band energies     occupation 
      1     -17.8825      2.00000
      2     -17.4037      2.00000
      3     -16.7846      2.00000
      4     -16.2497      2.00000
      5     -16.2112      2.00000
      6     -16.1901      2.00000
      7      -7.3205      2.00000
      8      -6.3136      2.00000
      9      -4.8211      2.00000
     10      -4.3621      2.00000
     11      -4.3310      2.00000
     12      -3.5502      2.00000
     13      -1.9959      2.00000
     14      -1.8294      2.00000
     15      -1.5988      2.00000
     16      -1.2178      2.00000
     17      -1.0096      2.00000
     18      -0.6652      2.00000
     19      -0.5979      2.00000
     20      -0.0083      2.00000
     21       0.0569      2.00000
     22       0.2974      2.00000
     23       0.8327      2.00000
     24       1.0565      2.00000
     25       9.3782      0.00000
     26      10.1149      0.00000
     27      10.8424      0.00000
     28      10.8432      0.00000
     29      11.6213      0.00000
     30      11.6966      0.00000

 k-point     5 :       0.1667    0.1667    0.0000
  band No.  band energies     occupation 
      1     -18.1382      2.00000
      2     -17.1059      2.00000
      3     -16.8123      2.00000
      4     -16.2386      2.00000
      5     -16.1955      2.00000
      6     -16.1690      2.00000
      7      -7.2786      2.00000
      8      -6.6695      2.00000
      9      -4.6407      2.00000
     10      -4.3697      2.00000
     11      -4.2278      2.00000
     12      -3.8054      2.00000
     13      -2.0350      2.00000
     14      -1.7876      2.00000
     15      -1.4879      2.00000
     16      -1.0880      2.00000
     17      -1.0803      2.00000
     18      -0.5611      2.00000
     19      -0.3632      2.00000
     20      -0.1315      2.00000
     21       0.1815      2.00000
     22       0.2268      2.00000
     23       0.8405      2.00000
     24       0.9764      2.00000
     25       8.2492      0.00000
     26      10.4267      0.00000
     27      10.5685      0.00000
     28      11.0512      0.00000
     29      11.2208      0.00000
     30      11.9483      0.00000

 k-point     6 :       0.3333    0.1667    0.0000
  band No.  band energies     occupation 
      1     -17.8893      2.00000
      2     -17.3843      2.00000
      3     -16.8045      2.00000
      4     -16.2470      2.00000
      5     -16.2095      2.00000
      6     -16.1873      2.00000
      7      -7.3437      2.00000
      8      -6.2135      2.00000
      9      -5.0401      2.00000
     10      -4.3219      2.00000
     11      -4.2302      2.00000
     12      -3.5580      2.00000
     13      -1.9842      2.00000
     14      -1.7853      2.00000
     15      -1.6588      2.00000
     16      -1.1650      2.00000
     17      -1.0026      2.00000
     18      -0.6963      2.00000
     19      -0.5080      2.00000
     20      -0.1898      2.00000
     21       0.0295      2.00000
     22       0.4218      2.00000
     23       0.7991      2.00000
     24       1.0679      2.00000
     25       9.2658      0.00000
     26      10.3651      0.00000
     27      10.6824      0.00000
     28      11.0857      0.00000
     29      11.4948      0.00000
     30      11.7131      0.00000

 k-point     7 :       0.3333    0.3333    0.0000
  band No.  band energies     occupation 
      1     -17.6373      2.00000
      2     -17.6373      2.00000
      3     -16.8185      2.00000
      4     -16.2459      2.00000
      5     -16.2017      2.00000
      6     -16.2017      2.00000
      7      -7.3814      2.00000
      8      -5.6430      2.00000
      9      -5.6429      2.00000
     10      -4.2393      2.00000
     11      -4.2393      2.00000
     12      -3.4637      2.00000
     13      -1.8546      2.00000
     14      -1.8546      2.00000
     15      -1.8038      2.00000
     16      -0.9778      2.00000
     17      -0.9778      2.00000
     18      -0.8219      2.00000
     19      -0.6253      2.00000
     20      -0.1473      2.00000
     21      -0.1473      2.00000
     22       0.6575      2.00000
     23       0.6575      2.00000
     24       1.0991      2.00000
     25      10.0496      0.00000
     26      10.0496      0.00000
     27      10.5372      0.00000
     28      11.4750      0.00000
     29      11.6181      0.00000
     30      11.6462      0.00000

 k-point     8 :       0.0000    0.0000    0.2000
  band No.  band energies     occupation 
      1     -18.2939      2.00000
      2     -17.2848      2.00000
      3     -16.4512      2.00000
      4     -16.1988      2.00000
      5     -16.1687      2.00000
      6     -16.1379      2.00000
      7      -7.8498      2.00000
      8      -6.3498      2.00000
      9      -4.4966      2.00000
     10      -4.4201      2.00000
     11      -4.3714      2.00000
     12      -3.8734      2.00000
     13      -1.9443      2.00000
     14      -1.6658      2.00000
     15      -1.5650      2.00000
     16      -1.2330      2.00000
     17      -0.6055      2.00000
     18      -0.4846      2.00000
     19      -0.4244      2.00000
     20      -0.2845      2.00000
     21       0.0770      2.00000
     22       0.5184      2.00000
     23       0.8089      2.00000
     24       0.9683      2.00000
     25       7.5138      0.00000
     26      10.2545      0.00000
     27      10.4188      0.00000
     28      10.5199      0.00000
     29      11.2222      0.00000
     30      12.1413      0.00000

 k-point     9 :       0.1667    0.0000    0.2000
  band No.  band energies     occupation 
      1     -18.2167      2.00000
      2     -17.2839      2.00000
      3     -16.5344      2.00000
      4     -16.2137      2.00000
      5     -16.1879      2.00000
      6     -16.1492      2.00000
      7      -7.7049      2.00000
      8      -6.3580      2.00000
      9      -4.6748      2.00000
     10      -4.3784      2.00000
     11      -4.1821      2.00000
     12      -3.9230      2.00000
     13      -2.0444      2.00000
     14      -1.6498      2.00000
     15      -1.5291      2.00000
     16      -1.1554      2.00000
     17      -0.8350      2.00000
     18      -0.4986      2.00000
     19      -0.3954      2.00000
     20      -0.2405      2.00000
     21       0.1598      2.00000
     22       0.4146      2.00000
     23       0.7503      2.00000
     24       1.0100      2.00000
     25       7.8896      0.00000
     26      10.2683      0.00000
     27      10.5102      0.00000
     28      10.6048      0.00000
     29      11.2973      0.00000
     30      11.9802      0.00000

 k-point    10 :       0.3333    0.0000    0.2000
  band No.  band energies     occupation 
      1     -18.0150      2.00000
      2     -17.3240      2.00000
      3     -16.7206      2.00000
      4     -16.2412      2.00000
      5     -16.2140      2.00000
      6     -16.1689      2.00000
      7      -7.4118      2.00000
      8      -6.3298      2.00000
      9      -4.9099      2.00000
     10      -4.3371      2.00000
     11      -4.1010      2.00000
     12      -3.8269      2.00000
     13      -2.1396      2.00000
     14      -1.7124      2.00000
     15      -1.4753      2.00000
     16      -1.2126      2.00000
     17      -0.8968      2.00000
     18      -0.6035      2.00000
     19      -0.4928      2.00000
     20      -0.0555      2.00000
     21       0.1594      2.00000
     22       0.2790      2.00000
     23       0.7929      2.00000
     24       0.9653      2.00000
     25       8.8053      0.00000
     26      10.3201      0.00000
     27      10.5722      0.00000
     28      11.0313      0.00000
     29      11.4047      0.00000
     30      11.6553      0.00000

 k-point    11 :       0.5000    0.0000    0.2000
  band No.  band energies     occupation 
      1     -17.8601      2.00000
      2     -17.3927      2.00000
      3     -16.8312      2.00000
      4     -16.2501      2.00000
      5     -16.2158      2.00000
      6     -16.1813      2.00000
      7      -7.2729      2.00000
      8      -6.2744      2.00000
      9      -5.0455      2.00000
     10      -4.3586      2.00000
     11      -4.1065      2.00000
     12      -3.6735      2.00000
     13      -2.0479      2.00000
     14      -1.9470      2.00000
     15      -1.4718      2.00000
     16      -1.2627      2.00000
     17      -0.8464      2.00000
     18      -0.7265      2.00000
     19      -0.4222      2.00000
     20      -0.0743      2.00000
     21       0.1385      2.00000
     22       0.3312      2.00000
     23       0.7198      2.00000
     24       0.9958      2.00000
     25       9.5715      0.00000
     26      10.1808      0.00000
     27      10.6855      0.00000
     28      11.1519      0.00000
     29      11.5768      0.00000
     30      11.6829      0.00000

 k-point    12 :      -0.3333    0.0000    0.2000
  band No.  band energies     occupation 
      1     -18.0187      2.00000
      2     -17.3039      2.00000
      3     -16.7541      2.00000
      4     -16.2334      2.00000
      5     -16.1931      2.00000
      6     -16.1803      2.00000
      7      -7.4154      2.00000
      8      -6.3311      2.00000
      9      -4.9116      2.00000
     10      -4.3763      2.00000
     11      -4.0779      2.00000
     12      -3.7775      2.00000
     13      -2.0753      2.00000
     14      -1.7039      2.00000
     15      -1.5285      2.00000
     16      -1.3910      2.00000
     17      -0.9264      2.00000
     18      -0.5020      2.00000
     19      -0.3486      2.00000
     20      -0.0914      2.00000
     21       0.0614      2.00000
     22       0.3929      2.00000
     23       0.6350      2.00000
     24       1.0587      2.00000
     25       8.7717      0.00000
     26      10.3796      0.00000
     27      10.7670      0.00000
     28      11.1865      0.00000
     29      11.3651      0.00000
     30      11.6853      0.00000

 k-point    13 :      -0.1667    0.0000    0.2000
  band No.  band energies     occupation 
      1     -18.2173      2.00000
      2     -17.2799      2.00000
      3     -16.5456      2.00000
      4     -16.2124      2.00000
      5     -16.1773      2.00000
      6     -16.1532      2.00000
      7      -7.7060      2.00000
      8      -6.3581      2.00000
      9      -4.6791      2.00000
     10      -4.3795      2.00000
     11      -4.1963      2.00000
     12      -3.8945      2.00000
     13      -2.0177      2.00000
     14      -1.6671      2.00000
     15      -1.5236      2.00000
     16      -1.2062      2.00000
     17      -0.8781      2.00000
     18      -0.4133      2.00000
     19      -0.3842      2.00000
     20      -0.2609      2.00000
     21       0.1900      2.00000
     22       0.3760      2.00000
     23       0.7247      2.00000
     24       1.0395      2.00000
     25       7.8799      0.00000
     26      10.3068      0.00000
     27      10.5358      0.00000
     28      10.6540      0.00000
     29      11.2297      0.00000
     30      12.0192      0.00000

 k-point    14 :       0.1667    0.1667    0.2000
  band No.  band energies     occupation 
      1     -18.0759      2.00000
      2     -17.2967      2.00000
      3     -16.6875      2.00000
      4     -16.2296      2.00000
      5     -16.2041      2.00000
      6     -16.1657      2.00000
      7      -7.4882      2.00000
      8      -6.3318      2.00000
      9      -4.8886      2.00000
     10      -4.3433      2.00000
     11      -4.0740      2.00000
     12      -3.8625      2.00000
     13      -2.0965      2.00000
     14      -1.6503      2.00000
     15      -1.5316      2.00000
     16      -1.2596      2.00000
     17      -0.9444      2.00000
     18      -0.4952      2.00000
     19      -0.4138      2.00000
     20      -0.1329      2.00000
     21       0.1764      2.00000
     22       0.3069      2.00000
     23       0.7107      2.00000
     24       1.0277      2.00000
     25       8.5205      0.00000
     26      10.3264      0.00000
     27      10.7362      0.00000
     28      10.8858      0.00000
     29      11.3503      0.00000
     30      11.7290      0.00000

 k-point    15 :       0.3333    0.1667    0.2000
  band No.  band energies     occupation 
      1     -17.8618      2.00000
      2     -17.3909      2.00000
      3     -16.8279      2.00000
      4     -16.2487      2.00000
      5     -16.2243      2.00000
      6     -16.1779      2.00000
      7      -7.2860      2.00000
      8      -6.1907      2.00000
      9      -5.1869      2.00000
     10      -4.3213      2.00000
     11      -4.0740      2.00000
     12      -3.6917      2.00000
     13      -2.0924      2.00000
     14      -1.8148      2.00000
     15      -1.5890      2.00000
     16      -1.1327      2.00000
     17      -0.9000      2.00000
     18      -0.7078      2.00000
     19      -0.4216      2.00000
     20      -0.1389      2.00000
     21       0.1210      2.00000
     22       0.3734      2.00000
     23       0.7373      2.00000
     24       0.9699      2.00000
     25       9.4549      0.00000
     26      10.4443      0.00000
     27      10.6039      0.00000
     28      11.2060      0.00000
     29      11.4087      0.00000
     30      11.6829      0.00000

 k-point    16 :       0.5000    0.1667    0.2000
  band No.  band energies     occupation 
      1     -17.8645      2.00000
      2     -17.3815      2.00000
      3     -16.8397      2.00000
      4     -16.2438      2.00000
      5     -16.2229      2.00000
      6     -16.1790      2.00000
      7      -7.2872      2.00000
      8      -6.1918      2.00000
      9      -5.1866      2.00000
     10      -4.3307      2.00000
     11      -4.0678      2.00000
     12      -3.6769      2.00000
     13      -2.0566      2.00000
     14      -1.8415      2.00000
     15      -1.6073      2.00000
     16      -1.1864      2.00000
     17      -0.9121      2.00000
     18      -0.6735      2.00000
     19      -0.3241      2.00000
     20      -0.1870      2.00000
     21       0.0713      2.00000
     22       0.4549      2.00000
     23       0.6506      2.00000
     24       1.0061      2.00000
     25       9.4446      0.00000
     26      10.3528      0.00000
     27      10.9099      0.00000
     28      11.0642      0.00000
     29      11.4576      0.00000
     30      11.7526      0.00000

 k-point    17 :       0.3333    0.3333    0.2000
  band No.  band energies     occupation 
      1     -17.7367      2.00000
      2     -17.4751      2.00000
      3     -16.8785      2.00000
      4     -16.2432      2.00000
      5     -16.2406      2.00000
      6     -16.1813      2.00000
      7      -7.2415      2.00000
      8      -5.9355      2.00000
      9      -5.5191      2.00000
     10      -4.2988      2.00000
     11      -4.0635      2.00000
     12      -3.6189      2.00000
     13      -2.0604      2.00000
     14      -1.7569      2.00000
     15      -1.7536      2.00000
     16      -0.9688      2.00000
     17      -0.9129      2.00000
     18      -0.8463      2.00000
     19      -0.3641      2.00000
     20      -0.2084      2.00000
     21       0.0257      2.00000
     22       0.5728      2.00000
     23       0.6185      2.00000
     24       0.9650      2.00000
     25      10.0538      0.00000
     26      10.2542      0.00000
     27      10.6631      0.00000
     28      11.3708      0.00000
     29      11.4364      0.00000
     30      11.5244      0.00000

 k-point    18 :       0.0000    0.0000    0.4000
  band No.  band energies     occupation 
      1     -18.0667      2.00000
      2     -17.7160      2.00000
      3     -16.2242      2.00000
      4     -16.1922      2.00000
      5     -16.1821      2.00000
      6     -16.1286      2.00000
      7      -8.2302      2.00000
      8      -5.5315      2.00000
      9      -4.8818      2.00000
     10      -4.5353      2.00000
     11      -4.5031      2.00000
     12      -3.6339      2.00000
     13      -1.7865      2.00000
     14      -1.5560      2.00000
     15      -1.5133      2.00000
     16      -1.0236      2.00000
     17      -0.8463      2.00000
     18      -0.7477      2.00000
     19      -0.6372      2.00000
     20      -0.4604      2.00000
     21      -0.0931      2.00000
     22       0.7628      2.00000
     23       0.9786      2.00000
     24       0.9795      2.00000
     25       8.4948      0.00000
     26       9.6458      0.00000
     27      10.1998      0.00000
     28      10.5269      0.00000
     29      11.2512      0.00000
     30      11.6904      0.00000

 k-point    19 :       0.1667    0.0000    0.4000
  band No.  band energies     occupation 
      1     -18.0048      2.00000
      2     -17.6743      2.00000
      3     -16.3455      2.00000
      4     -16.2134      2.00000
      5     -16.1898      2.00000
      6     -16.1429      2.00000
      7      -8.0304      2.00000
      8      -5.6360      2.00000
      9      -5.0501      2.00000
     10      -4.4350      2.00000
     11      -4.3374      2.00000
     12      -3.6907      2.00000
     13      -1.9265      2.00000
     14      -1.6447      2.00000
     15      -1.4954      2.00000
     16      -1.1219      2.00000
     17      -0.9448      2.00000
     18      -0.5719      2.00000
     19      -0.5247      2.00000
     20      -0.3233      2.00000
     21      -0.0200      2.00000
     22       0.6512      2.00000
     23       0.9041      2.00000
     24       0.9339      2.00000
     25       8.7733      0.00000
     26       9.7824      0.00000
     27      10.3719      0.00000
     28      10.5676      0.00000
     29      11.3130      0.00000
     30      11.7434      0.00000

 k-point    20 :       0.3333    0.0000    0.4000
  band No.  band energies     occupation 
      1     -17.8765      2.00000
      2     -17.5382      2.00000
      3     -16.6582      2.00000
      4     -16.2541      2.00000
      5     -16.1965      2.00000
      6     -16.1654      2.00000
      7      -7.5444      2.00000
      8      -5.9355      2.00000
      9      -5.2334      2.00000
     10      -4.3157      2.00000
     11      -4.0621      2.00000
     12      -3.8263      2.00000
     13      -2.1066      2.00000
     14      -1.9236      2.00000
     15      -1.3513      2.00000
     16      -1.1860      2.00000
     17      -0.9452      2.00000
     18      -0.4865      2.00000
     19      -0.3535      2.00000
     20      -0.1442      2.00000
     21       0.1195      2.00000
     22       0.4553      2.00000
     23       0.6808      2.00000
     24       0.8788      2.00000
     25       9.4986      0.00000
     26      10.0803      0.00000
     27      10.6257      0.00000
     28      10.7997      0.00000
     29      11.5575      0.00000
     30      11.8567      0.00000

 k-point    21 :       0.5000    0.0000    0.4000
  band No.  band energies     occupation 
      1     -17.8204      2.00000
      2     -17.3740      2.00000
      3     -16.9062      2.00000
      4     -16.2714      2.00000
      5     -16.1987      2.00000
      6     -16.1753      2.00000
      7      -7.1898      2.00000
      8      -6.2087      2.00000
      9      -5.2846      2.00000
     10      -4.2870      2.00000
     11      -3.9228      2.00000
     12      -3.8896      2.00000
     13      -2.1162      2.00000
     14      -2.0873      2.00000
     15      -1.3626      2.00000
     16      -1.1069      2.00000
     17      -0.9535      2.00000
     18      -0.5146      2.00000
     19      -0.2119      2.00000
     20      -0.0663      2.00000
     21       0.1273      2.00000
     22       0.4101      2.00000
     23       0.4666      2.00000
     24       0.9071      2.00000
     25       9.9971      0.00000
     26      10.3842      0.00000
     27      10.7484      0.00000
     28      11.0603      0.00000
     29      11.4698      0.00000
     30      11.7893      0.00000

 k-point    22 :      -0.3333    0.0000    0.4000
  band No.  band energies     occupation 
      1     -17.8822      2.00000
      2     -17.5259      2.00000
      3     -16.6758      2.00000
      4     -16.2470      2.00000
      5     -16.1882      2.00000
      6     -16.1695      2.00000
      7      -7.5462      2.00000
      8      -5.9401      2.00000
      9      -5.2275      2.00000
     10      -4.3366      2.00000
     11      -4.0628      2.00000
     12      -3.7873      2.00000
     13      -2.0835      2.00000
     14      -1.9468      2.00000
     15      -1.3212      2.00000
     16      -1.2570      2.00000
     17      -1.0061      2.00000
     18      -0.4130      2.00000
     19      -0.3024      2.00000
     20      -0.1128      2.00000
     21       0.1311      2.00000
     22       0.3253      2.00000
     23       0.6296      2.00000
     24       0.9780      2.00000
     25       9.3810      0.00000
     26      10.3556      0.00000
     27      10.5565      0.00000
     28      11.0712      0.00000
     29      11.2093      0.00000
     30      11.6753      0.00000

 k-point    23 :      -0.1667    0.0000    0.4000
  band No.  band energies     occupation 
      1     -18.0061      2.00000
      2     -17.6720      2.00000
      3     -16.3554      2.00000
      4     -16.2107      2.00000
      5     -16.1820      2.00000
      6     -16.1445      2.00000
      7      -8.0309      2.00000
      8      -5.6373      2.00000
      9      -5.0494      2.00000
     10      -4.4313      2.00000
     11      -4.3460      2.00000
     12      -3.6794      2.00000
     13      -1.9196      2.00000
     14      -1.6418      2.00000
     15      -1.4930      2.00000
     16      -1.1508      2.00000
     17      -0.9770      2.00000
     18      -0.5693      2.00000
     19      -0.4527      2.00000
     20      -0.3479      2.00000
     21      -0.0197      2.00000
     22       0.6494      2.00000
     23       0.8141      2.00000
     24       1.0194      2.00000
     25       8.7474      0.00000
     26       9.8375      0.00000
     27      10.3309      0.00000
     28      10.6859      0.00000
     29      11.2023      0.00000
     30      11.6540      0.00000

 k-point    24 :       0.1667    0.1667    0.4000
  band No.  band energies     occupation 
      1     -17.9095      2.00000
      2     -17.5816      2.00000
      3     -16.5718      2.00000
      4     -16.2384      2.00000
      5     -16.1922      2.00000
      6     -16.1665      2.00000
      7      -7.6819      2.00000
      8      -5.8272      2.00000
      9      -5.2297      2.00000
     10      -4.3143      2.00000
     11      -4.1539      2.00000
     12      -3.7719      2.00000
     13      -2.0624      2.00000
     14      -1.8419      2.00000
     15      -1.3893      2.00000
     16      -1.2465      2.00000
     17      -0.9378      2.00000
     18      -0.4993      2.00000
     19      -0.3576      2.00000
     20      -0.1486      2.00000
     21       0.0858      2.00000
     22       0.4546      2.00000
     23       0.7408      2.00000
     24       0.9058      2.00000
     25       9.2299      0.00000
     26      10.0922      0.00000
     27      10.5300      0.00000
     28      10.9154      0.00000
     29      11.2987      0.00000
     30      11.6588      0.00000

 k-point    25 :       0.3333    0.1667    0.4000
  band No.  band energies     occupation 
      1     -17.8139      2.00000
      2     -17.3993      2.00000
      3     -16.8748      2.00000
      4     -16.2691      2.00000
      5     -16.2072      2.00000
      6     -16.1825      2.00000
      7      -7.1834      2.00000
      8      -6.1632      2.00000
      9      -5.3742      2.00000
     10      -4.2334      2.00000
     11      -3.9670      2.00000
     12      -3.8855      2.00000
     13      -2.1546      2.00000
     14      -1.9575      2.00000
     15      -1.4630      2.00000
     16      -1.0968      2.00000
     17      -0.8815      2.00000
     18      -0.6391      2.00000
     19      -0.1558      2.00000
     20      -0.0370      2.00000
     21       0.1903      2.00000
     22       0.3665      2.00000
     23       0.5561      2.00000
     24       0.7852      2.00000
     25       9.9208      0.00000
     26      10.4283      0.00000
     27      10.7260      0.00000
     28      11.1367      0.00000
     29      11.4818      0.00000
     30      11.6678      0.00000

 k-point    26 :       0.5000    0.1667    0.4000
  band No.  band energies     occupation 
      1     -17.8161      2.00000
      2     -17.3923      2.00000
      3     -16.8826      2.00000
      4     -16.2662      2.00000
      5     -16.2062      2.00000
      6     -16.1832      2.00000
      7      -7.1842      2.00000
      8      -6.1648      2.00000
      9      -5.3720      2.00000
     10      -4.2422      2.00000
     11      -3.9698      2.00000
     12      -3.8683      2.00000
     13      -2.1486      2.00000
     14      -1.9631      2.00000
     15      -1.4701      2.00000
     16      -1.0948      2.00000
     17      -0.9288      2.00000
     18      -0.5905      2.00000
     19      -0.1614      2.00000
     20       0.0217      2.00000
     21       0.1848      2.00000
     22       0.2941      2.00000
     23       0.5349      2.00000
     24       0.8291      2.00000
     25       9.8639      0.00000
     26      10.5288      0.00000
     27      10.7969      0.00000
     28      11.1220      0.00000
     29      11.3079      0.00000
     30      11.6822      0.00000

 k-point    27 :       0.3333    0.3333    0.4000
  band No.  band energies     occupation 
      1     -17.7804      2.00000
      2     -17.2634      2.00000
      3     -17.0438      2.00000
      4     -16.2769      2.00000
      5     -16.2195      2.00000
      6     -16.1918      2.00000
      7      -6.8692      2.00000
      8      -6.3847      2.00000
      9      -5.4826      2.00000
     10      -4.1835      2.00000
     11      -3.9270      2.00000
     12      -3.9260      2.00000
     13      -2.1868      2.00000
     14      -1.7467      2.00000
     15      -1.7313      2.00000
     16      -0.8887      2.00000
     17      -0.8650      2.00000
     18      -0.8585      2.00000
     19       0.0136      2.00000
     20       0.0302      2.00000
     21       0.1956      2.00000
     22       0.4187      2.00000
     23       0.4404      2.00000
     24       0.6473      2.00000
     25      10.1464      0.00000
     26      10.6996      0.00000
     27      10.9236      0.00000
     28      11.2089      0.00000
     29      11.3140      0.00000
     30      11.3818      0.00000


--------------------------------------------------------------------------------------------------------


 soft charge-density along one line, spin component           1
         0         1         2         3         4         5         6         7         8         9
 total charge-density along one line
 
 pseudopotential strength for first ion, spin component:           1
 18.756   0.002   0.000  -0.000  -0.000  -0.000   0.000   0.000
  0.002   0.006  -0.000   0.000   0.000   0.000  -0.000  -0.000
  0.000  -0.000   4.218   0.001   0.000  -0.003  -0.000  -0.000
 -0.000   0.000   0.001   4.218   0.000  -0.000  -0.003  -0.000
 -0.000   0.000   0.000   0.000   4.218  -0.000  -0.000  -0.003
 -0.000   0.000  -0.003  -0.000  -0.000   0.005   0.000   0.000
  0.000  -0.000  -0.000  -0.003  -0.000   0.000   0.005   0.000
  0.000  -0.000  -0.000  -0.000  -0.003   0.000   0.000   0.005
 total augmentation occupancy for first ion, spin component:           1
  1.167  -1.628   0.000   0.000  -0.005  -0.000   0.000   0.025
 -1.628   3.551   0.000   0.000   0.041   0.000   0.000  -0.082
  0.000   0.000   1.030   0.016  -0.000  -1.183  -0.026   0.000
  0.000   0.000   0.016   1.001  -0.000  -0.025  -1.172   0.000
 -0.005   0.041  -0.000  -0.000   0.973   0.000   0.000  -1.171
 -0.000   0.000  -1.183  -0.025   0.000   1.682   0.052  -0.000
  0.000   0.000  -0.026  -1.172   0.000   0.052   1.670  -0.000
  0.025  -0.082   0.000   0.000  -1.171  -0.000  -0.000   1.676


------------------------ aborting loop because EDIFF is reached ----------------------------------------


    CHARGE:  cpu time    0.1193: real time    0.1203
    FORLOC:  cpu time    0.0081: real time    0.0082
    FORNL :  cpu time    0.5512: real time    0.5562
    STRESS:  cpu time    1.6761: real time    1.6912
    FORCOR:  cpu time    0.0571: real time    0.0574
    FORHAR:  cpu time    0.0207: real time    0.0208
    MIXING:  cpu time    0.0029: real time    0.0029
    OFIELD:  cpu time    0.0000: real time    0.0000

  FORCE on cell =-STRESS in cart. coord.  units (eV):
  Direction    XX          YY          ZZ          XY          YZ          ZX
  --------------------------------------------------------------------------------------
  Alpha Z    69.72429    69.72429    69.72429
  Ewald    -646.23789  -646.23789  -594.69999     0.00000     0.00000    -0.00000
  Hartree   347.21412   347.21412   377.18160     0.00000     0.00000    -0.00000
  E(xc)    -225.66310  -225.66311  -225.60103    -0.00001    -0.00000    -0.00000
  Local    -418.52879  -418.52903  -499.35240    -0.00021    -0.00001     0.00000
  n-local   -50.84020   -50.98626   -50.73978     0.13812    -0.03042    -0.09424
  augment    27.13478    27.13498    27.04055     0.00017     0.00001    -0.00002
  Kinetic   903.08510   903.65409   901.56593    -0.77677    -0.02941     0.06668
  Fock        0.00000     0.00000     0.00000     0.00000     0.00000     0.00000
  -------------------------------------------------------------------------------------
  Total       6.09975     6.09975     5.11917    -0.00000    -0.00000     0.00000
  in kB      86.46601    86.46601    72.56589    -0.00000    -0.00000     0.00000
  external pressure =       81.83 kB  Pullay stress =        0.00 kB


 VOLUME and BASIS-vectors are now :
 -----------------------------------------------------------------------------
  energy-cutoff  :      850.00
  volume of cell :      113.03
      direct lattice vectors                 reciprocal lattice vectors
     4.913800000  0.000000000  0.000000000     0.203508486  0.117495679  0.000000000
    -2.456900000  4.255475629  0.000000000     0.000000000  0.234991359  0.000000000
     0.000000000  0.000000000  5.405200000     0.000000000  0.000000000  0.185007030

  length of vectors
     4.913800000  4.913800000  5.405200000     0.234991359  0.234991359  0.185007030


 FORCES acting on ions
    electron-ion (+dipol)            ewald-force                    non-local-force                 convergence-correction
 -----------------------------------------------------------------------------------------------
   -.120E+01 -.657E-05 0.628E-05   0.812E+00 -.433E-11 0.482E-11   0.793E+00 -.347E-17 -.139E-16   0.238E-03 0.615E-08 -.508E-07
   0.598E+00 0.104E+01 0.186E-06   -.406E+00 -.703E+00 -.746E-13   -.396E+00 -.687E+00 0.000E+00   -.119E-03 -.206E-03 -.382E-12
   0.598E+00 -.104E+01 -.616E-05   -.406E+00 0.703E+00 -.477E-11   -.396E+00 0.687E+00 0.694E-17   -.119E-03 0.206E-03 0.508E-07
   0.723E+02 0.723E+01 0.302E+02   -.907E+02 -.616E+01 -.401E+02   0.179E+02 -.790E+00 0.994E+01   0.317E-02 0.849E-03 0.129E-02
   -.424E+02 -.590E+02 -.302E+02   0.507E+02 0.755E+02 0.401E+02   -.825E+01 -.159E+02 -.994E+01   -.232E-02 -.232E-02 -.129E-02
   0.723E+02 -.723E+01 -.302E+02   -.907E+02 0.616E+01 0.401E+02   0.179E+02 0.790E+00 -.994E+01   0.317E-02 -.849E-03 -.129E-02
   -.299E+02 0.662E+02 -.302E+02   0.400E+02 -.816E+02 0.401E+02   -.962E+01 0.151E+02 -.994E+01   -.849E-03 0.317E-02 -.129E-02
   -.299E+02 -.662E+02 0.302E+02   0.400E+02 0.816E+02 -.401E+02   -.962E+01 -.151E+02 0.994E+01   -.849E-03 -.317E-02 0.129E-02
   -.424E+02 0.590E+02 0.302E+02   0.507E+02 -.755E+02 -.401E+02   -.825E+01 0.159E+02 0.994E+01   -.232E-02 0.232E-02 0.129E-02
 -----------------------------------------------------------------------------------------------
   -.183E-04 -.318E-04 0.187E-06   0.142E-13 -.284E-13 -.497E-13   0.355E-14 0.355E-14 0.355E-14   -.162E-07 -.280E-07 -.449E-12
 
 
 POSITION                                       TOTAL-FORCE (eV/Angst)
 -----------------------------------------------------------------------------------
      2.30850      0.00000      3.60347         0.409184      0.000000      0.000000
      1.30265      2.25625      0.00000        -0.204592     -0.354364      0.000000
     -1.15425      1.99922      1.80173        -0.204592      0.354364      0.000000
      1.38274      1.13281      4.24633        -0.515040      0.283673      0.075404
      0.78449      3.62439      4.76234         0.011852      0.587874     -0.075404
     -1.07416      3.12267      2.96061        -0.515040     -0.283673     -0.075404
      0.28967      1.76389      1.15887         0.503188     -0.304201     -0.075404
      2.74657      2.49158      0.64286         0.503188      0.304201      0.075404
      3.24139      0.63109      2.44459         0.011852     -0.587874      0.075404
 -----------------------------------------------------------------------------------
    total drift:                               -0.000018     -0.000032      0.000000


--------------------------------------------------------------------------------------------------------



  FREE ENERGIE OF THE ION-ELECTRON SYSTEM (eV)
  ---------------------------------------------------
  free  energy   TOTEN  =       -71.06213941 eV

  energy  without entropy=      -71.06213941  energy(sigma->0) =      -71.06213941
 


--------------------------------------------------------------------------------------------------------


    POTLOK:  cpu time    0.0657: real time    0.0661


--------------------------------------------------------------------------------------------------------


     LOOP+:  cpu time   30.5966: real time   31.3339
    4ORBIT:  cpu time    0.0000: real time    0.0000
 BZINTS: Fermi energy:  1.115200; 48.000000 electrons
         Band energy:-275.972645;  BLOECHL correction:  0.000000

 total amount of memory used by VASP MPI-rank0    63272. kBytes
=======================================================================

   base      :      30000. kBytes
   nonlr-proj:        932. kBytes
   fftplans  :       4361. kBytes
   grid      :       6956. kBytes
   one-center:         15. kBytes
   wavefun   :      21008. kBytes
 
  
  
 General timing and accounting informations for this job:
 ========================================================
  
                  Total CPU time used (sec):       34.974
                            User time (sec):       32.150
                          System time (sec):        2.824
                         Elapsed time (sec):       38.859
  
                   Maximum memory used (kb):      203684.
                   Average memory used (kb):           0.
  
                          Minor page faults:        16938
                          Major page faults:         2220
                 Voluntary context switches:         4485
