Starting job 12684654 on c1-1 on saga at Wed Sep 18 14:38:07 CEST 2024

The following modules were not unloaded:
  (Use "module --force purge" to unload all):

  1) StdEnv
 running on    4 total cores
 distrk:  each k-point on    4 cores,    1 groups
 distr:  one band on    2 cores,    2 groups
 using from now: INCAR     
 vasp.5.4.4.18Apr17-6-g9f103f2a35 (build Jul 15 2019 14:02:39) complex          
  
 POSCAR found type information on POSCAR  Si O 
 POSCAR found :  2 types and       9 ions
 scaLAPACK will be used
 LDA part: xc-table for Pade appr. of Perdew
 POSCAR, INCAR and KPOINTS ok, starting setup
 FFT: planning ...
 WAVECAR not read
 entering main loop
       N       E                     dE             d eps       ncg     rms          rms(c)
DAV:   1     0.394484387960E+03    0.39448E+03   -0.32949E+04  1620   0.217E+03
DAV:   2    -0.548761214758E+02   -0.44936E+03   -0.43761E+03  2186   0.391E+02
DAV:   3    -0.803341214251E+02   -0.25458E+02   -0.25368E+02  1926   0.101E+02
DAV:   4    -0.806720613215E+02   -0.33794E+00   -0.33733E+00  1938   0.125E+01
DAV:   5    -0.806779925856E+02   -0.59313E-02   -0.59294E-02  1872   0.166E+00    0.188E+01
RMM:   6    -0.710814726141E+02    0.95965E+01   -0.40415E+01  1714   0.330E+01    0.513E+00
RMM:   7    -0.710517554896E+02    0.29717E-01   -0.15001E+00  1901   0.557E+00    0.339E+00
RMM:   8    -0.710674690135E+02   -0.15714E-01   -0.25458E-01  1834   0.414E+00    0.624E-01
RMM:   9    -0.710604831657E+02    0.69858E-02   -0.55683E-02  1934   0.122E+00    0.133E-01
RMM:  10    -0.710634625285E+02   -0.29794E-02   -0.13776E-02  1897   0.619E-01    0.227E-01
RMM:  11    -0.710621837760E+02    0.12788E-02   -0.25443E-03  1935   0.286E-01    0.629E-02
RMM:  12    -0.710621385017E+02    0.45274E-04   -0.79703E-04  1924   0.147E-01    0.832E-03
RMM:  13    -0.710621394107E+02   -0.90892E-06   -0.20199E-05  1313   0.266E-02
   1 F= -.71062139E+02 E0= -.71062139E+02  d E =0.000000E+00

Job 12684654 consumed 0.0 billing hours from project nn9988k.

Submitted 2024-09-18T14:38:06; waited 1.0 seconds in the queue after becoming eligible to run.

Requested wallclock time: 10.0 minutes
Elapsed wallclock time:   44.0 seconds

Task and CPU statistics:
ID              CPUs  Tasks  CPU util                Start  Elapsed  Exit status
12684654           4            0.0 %  2024-09-18T14:38:07   44.0 s  0
12684654.batch     4      1     1.6 %  2024-09-18T14:38:07   44.0 s  0
12684654.vasp      4      4    91.5 %  2024-09-18T14:38:12   39.0 s  0

Used CPU time:   2.4 CPU minutes
Unused CPU time: 30.5 CPU seconds

Memory statistics, in GiB:
ID               Alloc   Usage
12684654          14.8        
12684654.batch    14.8     0.0
12684654.vasp     14.8     0.6

Job 12684654 completed at Wed Sep 18 14:38:52 CEST 2024
