<?xml version="1.0" encoding="ISO-8859-1"?>
<modeling>
 <generator>
  <i name="program" type="string">vasp </i>
  <i name="version" type="string">5.4.4.18Apr17-6-g9f103f2a35  </i>
  <i name="subversion" type="string">(build Jul 15 2019 14:02:39) complex            parallel </i>
  <i name="platform" type="string">TEST </i>
  <i name="date" type="string">2024 09 18 </i>
  <i name="time" type="string">14:38:16 </i>
 </generator>
 <incar>
  <i type="string" name="PREC">normal    ! low/normal/accurate</i>
  <i type="string" name="ALGO"> Fast      ! Algorithm for electronic re</i>
  <i type="int" name="ISPIN">     1</i>
  <i type="int" name="NELMIN">     4</i>
  <i name="EDIFF">      0.00001000</i>
  <i type="int" name="NSW">     0</i>
  <i name="ENCUT">    850.00000000</i>
  <i type="string" name="LREAL"> Auto      ! Projection in reciprocal sp</i>
  <i type="int" name="ISMEAR">    -5</i>
  <i name="SIGMA">      0.20000000</i>
  <i type="logical" name="LWAVE"> F  </i>
  <v type="int" name="KPOINT_BSE">    -1     0     0     0</v>
 </incar>
 <structure name="primitive_cell" >
  <crystal>
   <varray name="basis" >
    <v>       4.91380000       0.00000000       0.00000000 </v>
    <v>      -2.45690000       4.25547563       0.00000000 </v>
    <v>       0.00000000       0.00000000       5.40520000 </v>
   </varray>
   <i name="volume">    113.02573808 </i>
   <varray name="rec_basis" >
    <v>       0.20350849       0.11749568       0.00000000 </v>
    <v>       0.00000000       0.23499136       0.00000000 </v>
    <v>       0.00000000       0.00000000       0.18500703 </v>
   </varray>
  </crystal>
  <varray name="positions" >
   <v>       0.46980000       0.00000000      -0.33333333 </v>
   <v>       0.14830000      -0.26620000      -0.45226667 </v>
   <v>       0.41450000       0.26620000      -0.21440000 </v>
   <v>      -0.26620000       0.14830000       0.45226667 </v>
   <v>      -0.41450000      -0.14830000      -0.11893333 </v>
   <v>       0.00000000       0.46980000       0.33333333 </v>
   <v>      -0.46980000      -0.46980000       0.00000000 </v>
   <v>       0.26620000       0.41450000       0.21440000 </v>
   <v>      -0.14830000      -0.41450000       0.11893333 </v>
  </varray>
 </structure>
 <varray name="primitive_index" >
  <v type="int" >        1 </v>
  <v type="int" >        6 </v>
  <v type="int" >        4 </v>
  <v type="int" >        9 </v>
  <v type="int" >        5 </v>
  <v type="int" >        3 </v>
  <v type="int" >        2 </v>
  <v type="int" >        7 </v>
  <v type="int" >        8 </v>
 </varray>
 <kpoints>
  <generation param="Gamma">
   <v type="int" name="divisions">       6        6        5 </v>
   <v name="usershift">      0.00000000       0.00000000       0.00000000 </v>
   <v name="genvec1">      0.16666667      -0.00000000       0.00000000 </v>
   <v name="genvec2">      0.00000000       0.16666667       0.00000000 </v>
   <v name="genvec3">      0.00000000       0.00000000       0.20000000 </v>
   <v name="shift">      0.00000000       0.00000000       0.00000000 </v>
  </generation>
  <varray name="kpointlist" >
   <v>       0.00000000       0.00000000       0.00000000 </v>
   <v>       0.16666667       0.00000000       0.00000000 </v>
   <v>       0.33333333       0.00000000       0.00000000 </v>
   <v>       0.50000000       0.00000000       0.00000000 </v>
   <v>       0.16666667       0.16666667       0.00000000 </v>
   <v>       0.33333333       0.16666667       0.00000000 </v>
   <v>       0.33333333       0.33333333       0.00000000 </v>
   <v>       0.00000000       0.00000000       0.20000000 </v>
   <v>       0.16666667       0.00000000       0.20000000 </v>
   <v>       0.33333333       0.00000000       0.20000000 </v>
   <v>       0.50000000       0.00000000       0.20000000 </v>
   <v>      -0.33333333       0.00000000       0.20000000 </v>
   <v>      -0.16666667       0.00000000       0.20000000 </v>
   <v>       0.16666667       0.16666667       0.20000000 </v>
   <v>       0.33333333       0.16666667       0.20000000 </v>
   <v>       0.50000000       0.16666667       0.20000000 </v>
   <v>       0.33333333       0.33333333       0.20000000 </v>
   <v>       0.00000000       0.00000000       0.40000000 </v>
   <v>       0.16666667       0.00000000       0.40000000 </v>
   <v>       0.33333333       0.00000000       0.40000000 </v>
   <v>       0.50000000       0.00000000       0.40000000 </v>
   <v>      -0.33333333       0.00000000       0.40000000 </v>
   <v>      -0.16666667       0.00000000       0.40000000 </v>
   <v>       0.16666667       0.16666667       0.40000000 </v>
   <v>       0.33333333       0.16666667       0.40000000 </v>
   <v>       0.50000000       0.16666667       0.40000000 </v>
   <v>       0.33333333       0.33333333       0.40000000 </v>
  </varray>
  <varray name="weights" >
   <v>       0.00555556 </v>
   <v>       0.03333333 </v>
   <v>       0.03333333 </v>
   <v>       0.01666667 </v>
   <v>       0.03333333 </v>
   <v>       0.06666667 </v>
   <v>       0.01111111 </v>
   <v>       0.01111111 </v>
   <v>       0.03333333 </v>
   <v>       0.03333333 </v>
   <v>       0.03333333 </v>
   <v>       0.03333333 </v>
   <v>       0.03333333 </v>
   <v>       0.06666667 </v>
   <v>       0.06666667 </v>
   <v>       0.06666667 </v>
   <v>       0.02222222 </v>
   <v>       0.01111111 </v>
   <v>       0.03333333 </v>
   <v>       0.03333333 </v>
   <v>       0.03333333 </v>
   <v>       0.03333333 </v>
   <v>       0.03333333 </v>
   <v>       0.06666667 </v>
   <v>       0.06666667 </v>
   <v>       0.06666667 </v>
   <v>       0.02222222 </v>
  </varray>
  <varray name="tetrahedronlist"  type="int" >
   <v type="int" >        4        2        2        5       13 </v>
   <v type="int" >        4        1        2        2       13 </v>
   <v type="int" >        4        1        2        8       13 </v>
   <v type="int" >        4        2        5       13       14 </v>
   <v type="int" >        8        2        9       13       14 </v>
   <v type="int" >        8        2        8        9       13 </v>
   <v type="int" >        8        3        5        6       14 </v>
   <v type="int" >        8        2        3        5       14 </v>
   <v type="int" >        4        2        3        9       14 </v>
   <v type="int" >        4        3        6       14       15 </v>
   <v type="int" >        4        3       10       14       15 </v>
   <v type="int" >        4        3        9       10       14 </v>
   <v type="int" >        4        4        6        6       15 </v>
   <v type="int" >        4        3        4        6       15 </v>
   <v type="int" >        4        3        4       10       15 </v>
   <v type="int" >        4        4        6       15       16 </v>
   <v type="int" >        4        4       11       15       16 </v>
   <v type="int" >        4        4       10       11       15 </v>
   <v type="int" >        4        3        5        6       16 </v>
   <v type="int" >        4        3        4        6       16 </v>
   <v type="int" >        4        3        4       11       16 </v>
   <v type="int" >        4        3        5       14       16 </v>
   <v type="int" >        4        3       12       14       16 </v>
   <v type="int" >        4        3       11       12       16 </v>
   <v type="int" >        4        2        2        5       14 </v>
   <v type="int" >        4        2        3       12       14 </v>
   <v type="int" >        4        2        2        9       14 </v>
   <v type="int" >        4        2       12       13       14 </v>
   <v type="int" >        4        1        2        2        9 </v>
   <v type="int" >        4        1        2        9       13 </v>
   <v type="int" >        4        1        8        9       13 </v>
   <v type="int" >        4        3        5        6       12 </v>
   <v type="int" >        4        2        3        5       12 </v>
   <v type="int" >        4        2        5       12       13 </v>
   <v type="int" >        4        5        6       12       16 </v>
   <v type="int" >        4        5       12       14       16 </v>
   <v type="int" >        4        5       12       13       14 </v>
   <v type="int" >        8        6        6        7       16 </v>
   <v type="int" >        4        5        6        6       16 </v>
   <v type="int" >        4        5        6       14       16 </v>
   <v type="int" >        8        6        7       16       17 </v>
   <v type="int" >       16        6       15       16       17 </v>
   <v type="int" >        8        6       14       15       16 </v>
   <v type="int" >        8        6        6        7       17 </v>
   <v type="int" >        8        6        6       15       17 </v>
   <v type="int" >        4        3        5        6       15 </v>
   <v type="int" >        4        5        6        6       15 </v>
   <v type="int" >        4        5        6       15       16 </v>
   <v type="int" >        4        3        5       10       15 </v>
   <v type="int" >        4        5       10       14       15 </v>
   <v type="int" >        4        5       14       15       16 </v>
   <v type="int" >        4        2        3        5       10 </v>
   <v type="int" >        4        2        5       10       14 </v>
   <v type="int" >        4        2        9       10       14 </v>
   <v type="int" >        4        4        6        6       11 </v>
   <v type="int" >        8        3        4        6       11 </v>
   <v type="int" >        4        3        6       11       12 </v>
   <v type="int" >        4        6        6       11       15 </v>
   <v type="int" >        8        6       11       15       16 </v>
   <v type="int" >        4        6       11       12       16 </v>
   <v type="int" >        8        6        6        7       15 </v>
   <v type="int" >        8        6        7       15       16 </v>
   <v type="int" >        8        7       15       16       17 </v>
   <v type="int" >        4        4        6        6       16 </v>
   <v type="int" >        4        4        6       11       16 </v>
   <v type="int" >        4        3        6       11       15 </v>
   <v type="int" >        4        3       10       11       15 </v>
   <v type="int" >        4        3        5        6       10 </v>
   <v type="int" >        4        3        4        6       10 </v>
   <v type="int" >        4        4        6       10       11 </v>
   <v type="int" >        4        5        6       10       14 </v>
   <v type="int" >        4        6       10       14       15 </v>
   <v type="int" >        4        6       10       11       15 </v>
   <v type="int" >        4        5        6        6       14 </v>
   <v type="int" >        4        6        6       14       15 </v>
   <v type="int" >        4        3        6       12       14 </v>
   <v type="int" >        4        6       12       14       16 </v>
   <v type="int" >        4        3        4        6       12 </v>
   <v type="int" >        4        4        6       12       16 </v>
   <v type="int" >        4        4       11       12       16 </v>
   <v type="int" >        4        2        2        5        9 </v>
   <v type="int" >        4        2        3        5        9 </v>
   <v type="int" >        4        3        5        9       10 </v>
   <v type="int" >        4        2        5        9       13 </v>
   <v type="int" >        4        5        9       13       14 </v>
   <v type="int" >        4        5        9       10       14 </v>
   <v type="int" >        4        2        3        5       13 </v>
   <v type="int" >        4        3        5       13       14 </v>
   <v type="int" >        4        3       12       13       14 </v>
   <v type="int" >        4        1        2        2        8 </v>
   <v type="int" >        4        2        2        8        9 </v>
   <v type="int" >        4        9       13       14       23 </v>
   <v type="int" >        4        8        9       13       23 </v>
   <v type="int" >        4        8        9       18       23 </v>
   <v type="int" >        4        9       14       23       24 </v>
   <v type="int" >        4        9       19       23       24 </v>
   <v type="int" >        4        9       18       19       23 </v>
   <v type="int" >        4       10       14       15       24 </v>
   <v type="int" >        4        9       10       14       24 </v>
   <v type="int" >        4        9       10       19       24 </v>
   <v type="int" >        4       10       15       24       25 </v>
   <v type="int" >        4       10       20       24       25 </v>
   <v type="int" >        4       10       19       20       24 </v>
   <v type="int" >        4       11       15       16       25 </v>
   <v type="int" >        4       10       11       15       25 </v>
   <v type="int" >        4       10       11       20       25 </v>
   <v type="int" >        4       11       16       25       26 </v>
   <v type="int" >        4       11       21       25       26 </v>
   <v type="int" >        4       11       20       21       25 </v>
   <v type="int" >        4       12       14       16       26 </v>
   <v type="int" >        4       11       12       16       26 </v>
   <v type="int" >        4       11       12       21       26 </v>
   <v type="int" >        4       12       14       24       26 </v>
   <v type="int" >        4       12       22       24       26 </v>
   <v type="int" >        4       12       21       22       26 </v>
   <v type="int" >        4        9       13       14       24 </v>
   <v type="int" >        4       12       13       14       24 </v>
   <v type="int" >        4       12       13       22       24 </v>
   <v type="int" >        4        9       13       19       24 </v>
   <v type="int" >        4       13       19       23       24 </v>
   <v type="int" >        4       13       22       23       24 </v>
   <v type="int" >        4        8        9       13       19 </v>
   <v type="int" >        4        8       13       19       23 </v>
   <v type="int" >        4        8       18       19       23 </v>
   <v type="int" >        4       12       14       16       22 </v>
   <v type="int" >        4       12       13       14       22 </v>
   <v type="int" >        4       13       14       22       23 </v>
   <v type="int" >        4       14       16       22       26 </v>
   <v type="int" >        4       14       22       24       26 </v>
   <v type="int" >        4       14       22       23       24 </v>
   <v type="int" >        8       15       16       17       26 </v>
   <v type="int" >        4       14       15       16       26 </v>
   <v type="int" >        4       14       15       24       26 </v>
   <v type="int" >        8       15       17       26       27 </v>
   <v type="int" >        8       15       25       26       27 </v>
   <v type="int" >        4       15       24       25       26 </v>
   <v type="int" >        8       15       16       17       27 </v>
   <v type="int" >        8       15       16       25       27 </v>
   <v type="int" >        8       16       25       26       27 </v>
   <v type="int" >        4       10       14       15       25 </v>
   <v type="int" >        4       14       15       16       25 </v>
   <v type="int" >        4       14       16       25       26 </v>
   <v type="int" >        4       10       14       20       25 </v>
   <v type="int" >        4       14       20       24       25 </v>
   <v type="int" >        4       14       24       25       26 </v>
   <v type="int" >        4        9       10       14       20 </v>
   <v type="int" >        4        9       14       20       24 </v>
   <v type="int" >        4        9       19       20       24 </v>
   <v type="int" >        4       11       15       16       21 </v>
   <v type="int" >        4       11       12       16       21 </v>
   <v type="int" >        4       12       16       21       22 </v>
   <v type="int" >        4       15       16       21       25 </v>
   <v type="int" >        4       16       21       25       26 </v>
   <v type="int" >        4       16       21       22       26 </v>
   <v type="int" >        8       15       16       17       25 </v>
   <v type="int" >        8       16       17       25       26 </v>
   <v type="int" >        8       17       25       26       27 </v>
   <v type="int" >        4       11       15       16       26 </v>
   <v type="int" >        4       11       15       21       26 </v>
   <v type="int" >        4       15       21       25       26 </v>
   <v type="int" >        4       10       11       15       21 </v>
   <v type="int" >        4       10       15       21       25 </v>
   <v type="int" >        4       10       20       21       25 </v>
   <v type="int" >        4       10       14       15       20 </v>
   <v type="int" >        4       10       11       15       20 </v>
   <v type="int" >        4       11       15       20       21 </v>
   <v type="int" >        4       14       15       20       24 </v>
   <v type="int" >        4       15       20       24       25 </v>
   <v type="int" >        4       15       20       21       25 </v>
   <v type="int" >        4       12       14       16       24 </v>
   <v type="int" >        4       14       15       16       24 </v>
   <v type="int" >        4       15       16       24       25 </v>
   <v type="int" >        4       12       16       22       24 </v>
   <v type="int" >        4       16       22       24       26 </v>
   <v type="int" >        4       16       24       25       26 </v>
   <v type="int" >        4       11       12       16       22 </v>
   <v type="int" >        4       11       16       22       26 </v>
   <v type="int" >        4       11       21       22       26 </v>
   <v type="int" >        4        9       13       14       19 </v>
   <v type="int" >        4        9       10       14       19 </v>
   <v type="int" >        4       10       14       19       20 </v>
   <v type="int" >        4       13       14       19       23 </v>
   <v type="int" >        4       14       19       23       24 </v>
   <v type="int" >        4       14       19       20       24 </v>
   <v type="int" >        4       12       13       14       23 </v>
   <v type="int" >        4       12       14       23       24 </v>
   <v type="int" >        4       12       22       23       24 </v>
   <v type="int" >        4        8        9       13       18 </v>
   <v type="int" >        4        9       13       18       19 </v>
   <v type="int" >        4       13       18       19       23 </v>
   <v type="int" >        4       19       19       23       24 </v>
   <v type="int" >        4       18       19       19       23 </v>
   <v type="int" >        2       18       18       19       19 </v>
   <v type="int" >        2       19       19       24       24 </v>
   <v type="int" >        4       20       24       24       25 </v>
   <v type="int" >        4       19       20       24       24 </v>
   <v type="int" >        8       19       20       23       24 </v>
   <v type="int" >        8       20       24       25       26 </v>
   <v type="int" >        8       20       22       24       26 </v>
   <v type="int" >        8       20       22       23       24 </v>
   <v type="int" >        8       21       25       26       26 </v>
   <v type="int" >        8       20       21       25       26 </v>
   <v type="int" >        8       20       21       22       26 </v>
   <v type="int" >        4       21       21       25       26 </v>
   <v type="int" >        4       21       21       22       26 </v>
   <v type="int" >        4       22       24       25       26 </v>
   <v type="int" >        4       21       22       25       26 </v>
   <v type="int" >        4       21       21       22       25 </v>
   <v type="int" >        4       22       24       24       25 </v>
   <v type="int" >        4       20       22       24       25 </v>
   <v type="int" >        4       20       21       22       25 </v>
   <v type="int" >        4       19       23       24       24 </v>
   <v type="int" >        4       22       23       24       24 </v>
   <v type="int" >        8       19       23       23       24 </v>
   <v type="int" >        8       18       19       23       23 </v>
   <v type="int" >        4       18       18       19       23 </v>
   <v type="int" >        8       25       25       26       27 </v>
   <v type="int" >        4       24       25       25       26 </v>
   <v type="int" >        2       24       24       25       25 </v>
   <v type="int" >        4       25       25       27       27 </v>
   <v type="int" >        8       25       26       27       27 </v>
   <v type="int" >       16       25       26       26       27 </v>
   <v type="int" >        8       24       25       26       26 </v>
   <v type="int" >        4       22       24       24       26 </v>
   <v type="int" >        4       24       24       25       26 </v>
   <v type="int" >        4       19       20       22       24 </v>
   <v type="int" >        4       19       22       24       24 </v>
   <v type="int" >        4       19       22       23       24 </v>
   <v type="int" >        4       21       25       25       26 </v>
   <v type="int" >        2       21       21       25       25 </v>
   <v type="int" >        4       20       21       21       25 </v>
  </varray>
  <i name="volumeweight">      0.00092593 </i>
 </kpoints>
 <parameters>
  <separator name="general" >
   <i type="string" name="SYSTEM">unknown system</i>
   <i type="logical" name="LCOMPAT"> F  </i>
  </separator>
  <separator name="electronic" >
   <i type="string" name="PREC">normal</i>
   <i name="ENMAX">    850.00000000</i>
   <i name="ENAUG">    605.39200000</i>
   <i name="EDIFF">      0.00001000</i>
   <i type="int" name="IALGO">    68</i>
   <i type="int" name="IWAVPR">    10</i>
   <i type="int" name="NBANDS">    30</i>
   <i name="NELECT">     48.00000000</i>
   <i type="int" name="TURBO">     0</i>
   <i type="int" name="IRESTART">     0</i>
   <i type="int" name="NREBOOT">     0</i>
   <i type="int" name="NMIN">     0</i>
   <i name="EREF">      0.00000000</i>
   <separator name="electronic smearing" >
    <i type="int" name="ISMEAR">    -5</i>
    <i name="SIGMA">      0.20000000</i>
    <i name="KSPACING">      0.50000000</i>
    <i type="logical" name="KGAMMA"> T  </i>
   </separator>
   <separator name="electronic projectors" >
    <i type="logical" name="LREAL"> T  </i>
    <v name="ROPT">     -0.00050000     -0.00050000</v>
    <i type="int" name="LMAXPAW">  -100</i>
    <i type="int" name="LMAXMIX">     2</i>
    <i type="logical" name="NLSPLINE"> F  </i>
   </separator>
   <separator name="electronic startup" >
    <i type="int" name="ISTART">     0</i>
    <i type="int" name="ICHARG">     2</i>
    <i type="int" name="INIWAV">     1</i>
   </separator>
   <separator name="electronic spin" >
    <i type="int" name="ISPIN">     1</i>
    <i type="logical" name="LNONCOLLINEAR"> F  </i>
    <v name="MAGMOM">      1.00000000      1.00000000      1.00000000      1.00000000      1.00000000      1.00000000      1.00000000      1.00000000      1.00000000</v>
    <i name="NUPDOWN">     -1.00000000</i>
    <i type="logical" name="LSORBIT"> F  </i>
    <v name="SAXIS">      0.00000000      0.00000000      1.00000000</v>
    <i type="logical" name="LSPIRAL"> F  </i>
    <v name="QSPIRAL">      0.00000000      0.00000000      0.00000000</v>
    <i type="logical" name="LZEROZ"> F  </i>
   </separator>
   <separator name="electronic exchange-correlation" >
    <i type="logical" name="LASPH"> F  </i>
    <i type="logical" name="LMETAGGA"> F  </i>
   </separator>
   <separator name="electronic convergence" >
    <i type="int" name="NELM">    60</i>
    <i type="int" name="NELMDL">    -5</i>
    <i type="int" name="NELMIN">     4</i>
    <i name="ENINI">    850.00000000</i>
    <separator name="electronic convergence detail" >
     <i type="logical" name="LDIAG"> T  </i>
     <i type="logical" name="LSUBROT"> F  </i>
     <i name="WEIMIN">      0.00000000</i>
     <i name="EBREAK">      0.00000008</i>
     <i name="DEPER">      0.30000000</i>
     <i type="int" name="NRMM">     4</i>
     <i name="TIME">      0.40000000</i>
    </separator>
   </separator>
   <separator name="electronic mixer" >
    <i name="AMIX">      0.40000000</i>
    <i name="BMIX">      1.00000000</i>
    <i name="AMIN">      0.10000000</i>
    <i name="AMIX_MAG">      1.60000000</i>
    <i name="BMIX_MAG">      1.00000000</i>
    <separator name="electronic mixer details" >
     <i type="int" name="IMIX">     4</i>
     <i type="logical" name="MIXFIRST"> F  </i>
     <i type="int" name="MAXMIX">   -45</i>
     <i name="WC">    100.00000000</i>
     <i type="int" name="INIMIX">     1</i>
     <i type="int" name="MIXPRE">     1</i>
     <i type="int" name="MREMOVE">     5</i>
    </separator>
   </separator>
   <separator name="electronic dipolcorrection" >
    <i type="logical" name="LDIPOL"> F  </i>
    <i type="logical" name="LMONO"> F  </i>
    <i type="int" name="IDIPOL">     0</i>
    <i name="EPSILON">      1.00000000</i>
    <v name="DIPOL">   -100.00000000   -100.00000000   -100.00000000</v>
    <i name="EFIELD">      0.00000000</i>
   </separator>
  </separator>
  <separator name="grids" >
   <i type="int" name="NGX">    36</i>
   <i type="int" name="NGY">    36</i>
   <i type="int" name="NGZ">    40</i>
   <i type="int" name="NGXF">    72</i>
   <i type="int" name="NGYF">    72</i>
   <i type="int" name="NGZF">    80</i>
   <i type="logical" name="ADDGRID"> F  </i>
  </separator>
  <separator name="ionic" >
   <i type="int" name="NSW">     0</i>
   <i type="int" name="IBRION">    -1</i>
   <i type="int" name="MDALGO">     0</i>
   <i type="int" name="ISIF">     2</i>
   <i name="PSTRESS">      0.00000000</i>
   <i name="EDIFFG">      0.00010000</i>
   <i type="int" name="NFREE">     0</i>
   <i name="POTIM">      0.50000000</i>
   <i name="SMASS">     -3.00000000</i>
   <i name="SCALEE">      1.00000000</i>
  </separator>
  <separator name="ionic md" >
   <i name="TEBEG">      0.00010000</i>
   <i name="TEEND">      0.00010000</i>
   <i type="int" name="NBLOCK">     1</i>
   <i type="int" name="KBLOCK">     1</i>
   <i type="int" name="NPACO">   256</i>
   <i name="APACO">     16.00000000</i>
  </separator>
  <separator name="symmetry" >
   <i type="int" name="ISYM">     2</i>
   <i name="SYMPREC">      0.00001000</i>
  </separator>
  <separator name="dos" >
   <i type="int" name="LORBIT">     0</i>
   <v name="RWIGS">     -1.00000000     -1.00000000</v>
   <i type="int" name="NEDOS">   301</i>
   <i name="EMIN">     10.00000000</i>
   <i name="EMAX">    -10.00000000</i>
   <i name="EFERMI">      0.00000000</i>
  </separator>
  <separator name="writing" >
   <i type="int" name="NWRITE">     2</i>
   <i type="logical" name="LWAVE"> F  </i>
   <i type="logical" name="LDOWNSAMPLE"> F  </i>
   <i type="logical" name="LCHARG"> T  </i>
   <i type="logical" name="LPARD"> F  </i>
   <i type="logical" name="LVTOT"> F  </i>
   <i type="logical" name="LVHAR"> F  </i>
   <i type="logical" name="LELF"> F  </i>
   <i type="logical" name="LOPTICS"> F  </i>
   <v name="STM">      0.00000000      0.00000000      0.00000000      0.00000000      0.00000000      0.00000000      0.00000000</v>
  </separator>
  <separator name="performance" >
   <i type="int" name="NPAR">     2</i>
   <i type="int" name="NSIM">     4</i>
   <i type="int" name="NBLK">    -1</i>
   <i type="logical" name="LPLANE"> T  </i>
   <i type="logical" name="LSCALAPACK"> T  </i>
   <i type="logical" name="LSCAAWARE"> F  </i>
   <i type="logical" name="LSCALU"> F  </i>
   <i type="logical" name="LASYNC"> F  </i>
   <i type="logical" name="LORBITALREAL"> F  </i>
  </separator>
  <separator name="miscellaneous" >
   <i type="int" name="IDIOT">     3</i>
   <i type="int" name="ISPECIAL">     0</i>
   <i type="logical" name="LMUSIC"> F  </i>
   <v name="POMASS">     28.08500000     16.00000000</v>
   <v name="DARWINR">      0.00000000      0.00000000</v>
   <v name="DARWINV">      1.00000000      1.00000000</v>
   <i type="logical" name="LCORR"> T  </i>
  </separator>
  <i type="logical" name="GGA_COMPAT"> T  </i>
  <i type="logical" name="LBERRY"> F  </i>
  <i type="int" name="ICORELEVEL">     0</i>
  <i type="logical" name="LDAU"> F  </i>
  <i type="int" name="I_CONSTRAINED_M">     0</i>
  <separator name="electronic exchange-correlation" >
   <i type="string" name="GGA">--</i>
   <i type="int" name="VOSKOWN">     0</i>
   <i type="logical" name="LHFCALC"> F  </i>
   <i type="string" name="PRECFOCK"></i>
   <i type="logical" name="LSYMGRAD"> F  </i>
   <i type="logical" name="LHFONE"> F  </i>
   <i type="logical" name="LRHFCALC"> F  </i>
   <i type="logical" name="LTHOMAS"> F  </i>
   <i type="logical" name="LMODELHF"> F  </i>
   <i name="ENCUT4O">     -1.00000000</i>
   <i type="int" name="EXXOEP">     0</i>
   <i type="int" name="FOURORBIT">     0</i>
   <i name="AEXX">      0.00000000</i>
   <i name="HFALPHA">      0.00000000</i>
   <i name="MCALPHA">      0.00000000</i>
   <i name="ALDAX">      1.00000000</i>
   <i name="AGGAX">      1.00000000</i>
   <i name="ALDAC">      1.00000000</i>
   <i name="AGGAC">      1.00000000</i>
   <i type="int" name="NKREDX">     1</i>
   <i type="int" name="NKREDY">     1</i>
   <i type="int" name="NKREDZ">     1</i>
   <i type="logical" name="SHIFTRED"> F  </i>
   <i type="logical" name="ODDONLY"> F  </i>
   <i type="logical" name="EVENONLY"> F  </i>
   <i type="int" name="LMAXFOCK">     0</i>
   <i type="int" name="NMAXFOCKAE">     0</i>
   <i type="logical" name="LFOCKAEDFT"> F  </i>
   <i name="HFSCREEN">      0.00000000</i>
   <i name="HFSCREENC">      0.00000000</i>
   <i type="int" name="NBANDSGWLOW">     0</i>
  </separator>
  <separator name="vdW DFT" >
   <i type="logical" name="LUSE_VDW"> F  </i>
   <i name="Zab_VDW">     -0.84910000</i>
   <i name="PARAM1">      0.12340000</i>
   <i name="PARAM2">      1.00000000</i>
   <i name="PARAM3">      0.00000000</i>
  </separator>
  <separator name="model GW" >
   <i type="int" name="MODEL_GW">     0</i>
   <i name="MODEL_EPS0">      7.53504921</i>
   <i name="MODEL_ALPHA">      1.00000000</i>
  </separator>
  <separator name="linear response parameters" >
   <i type="logical" name="LEPSILON"> F  </i>
   <i type="logical" name="LRPA"> F  </i>
   <i type="logical" name="LNABLA"> F  </i>
   <i type="logical" name="LVEL"> F  </i>
   <i type="int" name="KINTER">     0</i>
   <i name="CSHIFT">      0.10000000</i>
   <i name="OMEGAMAX">     -1.00000000</i>
   <i name="DEG_THRESHOLD">      0.00200000</i>
   <i name="RTIME">     -0.10000000</i>
   <i name="WPLASMAI">      0.00000000</i>
   <v name="DFIELD">      0.00000000      0.00000000      0.00000000</v>
   <v name="WPLASMA">      0.00000000      0.00000000      0.00000000      0.00000000      0.00000000      0.00000000      0.00000000      0.00000000      0.00000000</v>
  </separator>
  <separator name="orbital magnetization" >
   <i type="logical" name="NUCIND"> F  </i>
   <v name="MAGPOS">      0.00000000      0.00000000      0.00000000</v>
   <i type="logical" name="LNICSALL"> T  </i>
   <i type="logical" name="ORBITALMAG"> F  </i>
   <i type="logical" name="LMAGBLOCH"> F  </i>
   <i type="logical" name="LCHIMAG"> F  </i>
   <i type="logical" name="LGAUGE"> T  </i>
   <i type="int" name="MAGATOM">     0</i>
   <v name="MAGDIPOL">      0.00000000      0.00000000      0.00000000</v>
   <v name="AVECCONST">      0.00000000      0.00000000      0.00000000</v>
  </separator>
  <separator name="response functions" >
   <i type="logical" name="LADDER"> F  </i>
   <i type="logical" name="LRPAFORCE"> F  </i>
   <i type="logical" name="LFXC"> F  </i>
   <i type="logical" name="LHARTREE"> T  </i>
   <i type="int" name="IBSE">     0</i>
   <v type="int" name="KPOINT">    -1     0     0     0</v>
   <i type="logical" name="LTCTE"> F  </i>
   <i type="logical" name="LTETE"> F  </i>
   <i type="logical" name="LTRIPLET"> F  </i>
   <i type="logical" name="LFXCEPS"> F  </i>
   <i type="logical" name="LFXHEG"> F  </i>
   <i type="int" name="NATURALO">     2</i>
   <i type="logical" name="L2ORDER"> F  </i>
   <i type="logical" name="LMP2LT"> F  </i>
   <i type="logical" name="LUSEW"> F  </i>
   <i name="ENCUTGW">     -2.00000000</i>
   <i name="ENCUTGWSOFT">     -2.00000000</i>
   <i name="ENCUTLF">     -1.00000000</i>
   <i type="int" name="LMAXMP2">    -1</i>
   <i name="SCISSOR">      0.00000000</i>
   <i type="int" name="NOMEGA">     0</i>
   <i type="int" name="NOMEGAR">     0</i>
   <i type="int" name="NBANDSGW">    -1</i>
   <i type="int" name="NBANDSO">    -1</i>
   <i type="int" name="NBANDSV">    -1</i>
   <i type="int" name="NELM">     1</i>
   <i type="int" name="NELMHF">     1</i>
   <i type="int" name="DIM">     3</i>
   <i type="int" name="ANTIRES">     0</i>
   <i name="OMEGAMAX">    -30.00000000</i>
   <i name="OMEGAMIN">    -30.00000000</i>
   <i name="OMEGATL">   -200.00000000</i>
   <i type="int" name="OMEGAGRID">   140</i>
   <i name="CSHIFT">     -0.10000000</i>
   <i type="logical" name="SELFENERGY"> F  </i>
   <i type="logical" name="LSPECTRAL"> F  </i>
   <i type="logical" name="LSPECTRALGW"> F  </i>
   <i type="logical" name="LSINGLES"> F  </i>
   <i type="logical" name="LFERMIGW"> F  </i>
   <i type="logical" name="ODDONLYGW"> F  </i>
   <i type="logical" name="EVENONLYGW"> F  </i>
   <i type="int" name="NKREDLFX">     1</i>
   <i type="int" name="NKREDLFY">     1</i>
   <i type="int" name="NKREDLFZ">     1</i>
   <i type="int" name="MAXMEM">  2800</i>
   <i type="int" name="TELESCOPE">     0</i>
   <i type="int" name="TAUPAR">     1</i>
   <i type="int" name="OMEGAPAR">    -1</i>
   <i name="LAMBDA">      1.00000000</i>
  </separator>
  <separator name="External order field" >
   <i name="OFIELD_KAPPA">      0.00000000</i>
   <v name="OFIELD_K">      0.00000000      0.00000000      0.00000000</v>
   <i name="OFIELD_Q6_NEAR">      0.00000000</i>
   <i name="OFIELD_Q6_FAR">      0.00000000</i>
   <i name="OFIELD_A">      0.00000000</i>
  </separator>
 </parameters>
 <atominfo>
  <atoms>       9 </atoms>
  <types>       2 </types>
  <array name="atoms" >
   <dimension dim="1">ion</dimension>
   <field type="string">element</field>
   <field type="int">atomtype</field>
   <set>
    <rc><c>Si</c><c>   1</c></rc>
    <rc><c>Si</c><c>   1</c></rc>
    <rc><c>Si</c><c>   1</c></rc>
    <rc><c>O </c><c>   2</c></rc>
    <rc><c>O </c><c>   2</c></rc>
    <rc><c>O </c><c>   2</c></rc>
    <rc><c>O </c><c>   2</c></rc>
    <rc><c>O </c><c>   2</c></rc>
    <rc><c>O </c><c>   2</c></rc>
   </set>
  </array>
  <array name="atomtypes" >
   <dimension dim="1">type</dimension>
   <field type="int">atomspertype</field>
   <field type="string">element</field>
   <field>mass</field>
   <field>valence</field>
   <field type="string">pseudopotential</field>
   <set>
    <rc><c>   3</c><c>Si</c><c>     28.08500000</c><c>      4.00000000</c><c> PAW_PBE Si 05Jan2001                   </c></rc>
    <rc><c>   6</c><c>O </c><c>     16.00000000</c><c>      6.00000000</c><c> PAW_PBE O 08Apr2002                    </c></rc>
   </set>
  </array>
 </atominfo>
 <structure name="initialpos" >
  <crystal>
   <varray name="basis" >
    <v>       4.91380000       0.00000000       0.00000000 </v>
    <v>      -2.45690000       4.25547563       0.00000000 </v>
    <v>       0.00000000       0.00000000       5.40520000 </v>
   </varray>
   <i name="volume">    113.02573808 </i>
   <varray name="rec_basis" >
    <v>       0.20350849       0.11749568       0.00000000 </v>
    <v>       0.00000000       0.23499136       0.00000000 </v>
    <v>       0.00000000       0.00000000       0.18500703 </v>
   </varray>
  </crystal>
  <varray name="positions" >
   <v>       0.46980000       0.00000000       0.66666667 </v>
   <v>       0.53020000       0.53020000       0.00000000 </v>
   <v>       0.00000000       0.46980000       0.33333333 </v>
   <v>       0.41450000       0.26620000       0.78560000 </v>
   <v>       0.58550000       0.85170000       0.88106667 </v>
   <v>       0.14830000       0.73380000       0.54773333 </v>
   <v>       0.26620000       0.41450000       0.21440000 </v>
   <v>       0.85170000       0.58550000       0.11893333 </v>
   <v>       0.73380000       0.14830000       0.45226667 </v>
  </varray>
 </structure>
 <calculation>
  <scstep>
   <time name="dav">    1.95    1.98</time>
   <time name="total">    2.03    2.18</time>
   <energy>
    <i name="alphaZ">     69.72428684 </i>
    <i name="ewald">  -1887.17190222 </i>
    <i name="hartreedc">   -937.16683993 </i>
    <i name="XCdc">    142.01202145 </i>
    <i name="pawpsdc">   1574.92322788 </i>
    <i name="pawaedc">  -1533.24131965 </i>
    <i name="eentropy">      0.00000000 </i>
    <i name="bandstr">     61.95034327 </i>
    <i name="atom">   2903.45457031 </i>
    <i name="e_fr_energy">    394.48438796 </i>
    <i name="e_wo_entrp">    394.48438796 </i>
    <i name="e_0_energy">    394.48438796 </i>
   </energy>
  </scstep>
  <scstep>
   <time name="dav">    2.44    2.47</time>
   <time name="total">    2.44    2.47</time>
   <energy>
    <i name="e_fr_energy">    -54.87612148 </i>
    <i name="e_wo_entrp">    -54.87612148 </i>
    <i name="e_0_energy">    -54.87612148 </i>
   </energy>
  </scstep>
  <scstep>
   <time name="dav">    2.20    2.22</time>
   <time name="total">    2.20    2.23</time>
   <energy>
    <i name="e_fr_energy">    -80.33412143 </i>
    <i name="e_wo_entrp">    -80.33412143 </i>
    <i name="e_0_energy">    -80.33412143 </i>
   </energy>
  </scstep>
  <scstep>
   <time name="dav">    2.21    2.23</time>
   <time name="total">    2.21    2.24</time>
   <energy>
    <i name="e_fr_energy">    -80.67206132 </i>
    <i name="e_wo_entrp">    -80.67206132 </i>
    <i name="e_0_energy">    -80.67206132 </i>
   </energy>
  </scstep>
  <scstep>
   <time name="dav">    2.21    2.24</time>
   <time name="total">    2.38    2.42</time>
   <energy>
    <i name="e_fr_energy">    -80.67799259 </i>
    <i name="e_wo_entrp">    -80.67799259 </i>
    <i name="e_0_energy">    -80.67799259 </i>
   </energy>
  </scstep>
  <scstep>
   <time name="diag">    0.35    0.36</time>
   <time name="diis">    1.31    1.32</time>
   <time name="orth">    0.04    0.04</time>
   <time name="total">    1.89    1.91</time>
   <energy>
    <i name="e_fr_energy">    -71.08147261 </i>
    <i name="e_wo_entrp">    -71.08147261 </i>
    <i name="e_0_energy">    -71.08147261 </i>
   </energy>
  </scstep>
  <scstep>
   <time name="diag">    0.35    0.35</time>
   <time name="diis">    1.47    1.48</time>
   <time name="orth">    0.04    0.04</time>
   <time name="total">    2.05    2.07</time>
   <energy>
    <i name="e_fr_energy">    -71.05175549 </i>
    <i name="e_wo_entrp">    -71.05175549 </i>
    <i name="e_0_energy">    -71.05175549 </i>
   </energy>
  </scstep>
  <scstep>
   <time name="diag">    0.35    0.36</time>
   <time name="diis">    1.49    1.51</time>
   <time name="orth">    0.04    0.04</time>
   <time name="total">    2.08    2.10</time>
   <energy>
    <i name="e_fr_energy">    -71.06746901 </i>
    <i name="e_wo_entrp">    -71.06746901 </i>
    <i name="e_0_energy">    -71.06746901 </i>
   </energy>
  </scstep>
  <scstep>
   <time name="diag">    0.36    0.36</time>
   <time name="diis">    1.55    1.57</time>
   <time name="orth">    0.04    0.04</time>
   <time name="total">    2.14    2.16</time>
   <energy>
    <i name="e_fr_energy">    -71.06048317 </i>
    <i name="e_wo_entrp">    -71.06048317 </i>
    <i name="e_0_energy">    -71.06048317 </i>
   </energy>
  </scstep>
  <scstep>
   <time name="diag">    0.36    0.36</time>
   <time name="diis">    1.53    1.55</time>
   <time name="orth">    0.04    0.04</time>
   <time name="total">    2.12    2.14</time>
   <energy>
    <i name="e_fr_energy">    -71.06346253 </i>
    <i name="e_wo_entrp">    -71.06346253 </i>
    <i name="e_0_energy">    -71.06346253 </i>
   </energy>
  </scstep>
  <scstep>
   <time name="diag">    0.36    0.36</time>
   <time name="diis">    1.54    1.56</time>
   <time name="orth">    0.04    0.04</time>
   <time name="total">    2.13    2.16</time>
   <energy>
    <i name="e_fr_energy">    -71.06218378 </i>
    <i name="e_wo_entrp">    -71.06218378 </i>
    <i name="e_0_energy">    -71.06218378 </i>
   </energy>
  </scstep>
  <scstep>
   <time name="diag">    0.36    0.36</time>
   <time name="diis">    1.54    1.55</time>
   <time name="orth">    0.04    0.04</time>
   <time name="total">    2.13    2.15</time>
   <energy>
    <i name="e_fr_energy">    -71.06213850 </i>
    <i name="e_wo_entrp">    -71.06213850 </i>
    <i name="e_0_energy">    -71.06213850 </i>
   </energy>
  </scstep>
  <scstep>
   <time name="diag">    0.36    0.36</time>
   <time name="diis">    1.10    1.11</time>
   <time name="orth">    0.04    0.04</time>
   <time name="total">    1.57    1.59</time>
   <energy>
    <i name="alphaZ">     69.72428684 </i>
    <i name="ewald">  -1887.17190222 </i>
    <i name="hartreedc">  -1071.55812934 </i>
    <i name="XCdc">    151.13096762 </i>
    <i name="pawpsdc">   2051.10112090 </i>
    <i name="pawaedc">  -2011.77040850 </i>
    <i name="eentropy">      0.00000000 </i>
    <i name="bandstr">   -275.97264503 </i>
    <i name="atom">   2903.45457031 </i>
    <i name="e_fr_energy">    -71.06213941 </i>
    <i name="e_wo_entrp">    -71.06213941 </i>
    <i name="e_0_energy">    -71.06213941 </i>
   </energy>
  </scstep>
  <structure>
   <crystal>
    <varray name="basis" >
     <v>       4.91380000       0.00000000       0.00000000 </v>
     <v>      -2.45690000       4.25547563       0.00000000 </v>
     <v>       0.00000000       0.00000000       5.40520000 </v>
    </varray>
    <i name="volume">    113.02573808 </i>
    <varray name="rec_basis" >
     <v>       0.20350849       0.11749568       0.00000000 </v>
     <v>       0.00000000       0.23499136       0.00000000 </v>
     <v>       0.00000000       0.00000000       0.18500703 </v>
    </varray>
   </crystal>
   <varray name="positions" >
    <v>       0.46980000       0.00000000       0.66666667 </v>
    <v>       0.53020000       0.53020000       0.00000000 </v>
    <v>       0.00000000       0.46980000       0.33333333 </v>
    <v>       0.41450000       0.26620000       0.78560000 </v>
    <v>       0.58550000       0.85170000       0.88106667 </v>
    <v>       0.14830000       0.73380000       0.54773333 </v>
    <v>       0.26620000       0.41450000       0.21440000 </v>
    <v>       0.85170000       0.58550000       0.11893333 </v>
    <v>       0.73380000       0.14830000       0.45226667 </v>
   </varray>
  </structure>
  <varray name="forces" >
   <v>       0.40918406       0.00000000       0.00000000 </v>
   <v>      -0.20459203      -0.35436379       0.00000000 </v>
   <v>      -0.20459203       0.35436379       0.00000000 </v>
   <v>      -0.51503984       0.28367315       0.07540392 </v>
   <v>       0.01185176       0.58787416      -0.07540392 </v>
   <v>      -0.51503984      -0.28367315      -0.07540392 </v>
   <v>       0.50318808      -0.30420101      -0.07540392 </v>
   <v>       0.50318808       0.30420101       0.07540392 </v>
   <v>       0.01185176      -0.58787416       0.07540392 </v>
  </varray>
  <varray name="stress" >
   <v>      86.46601265      -0.00000000       0.00000000 </v>
   <v>      -0.00000000      86.46601265      -0.00000000 </v>
   <v>       0.00000000      -0.00000000      72.56588999 </v>
  </varray>
  <energy>
   <i name="e_fr_energy">    -71.06213941 </i>
   <i name="e_wo_entrp">    -71.06213941 </i>
   <i name="e_0_energy">      0.00000000 </i>
  </energy>
  <time name="totalsc">   30.60   31.33</time>
  <eigenvalues>
   <array>
    <dimension dim="1">band</dimension>
    <dimension dim="2">kpoint</dimension>
    <dimension dim="3">spin</dimension>
    <field>eigene</field>
    <field>occ</field>
    <set>
     <set comment="spin 1">
      <set comment="kpoint 1">
       <r>  -18.3724    1.0000 </r>
       <r>  -16.8357    1.0000 </r>
       <r>  -16.8357    1.0000 </r>
       <r>  -16.2011    1.0000 </r>
       <r>  -16.1530    1.0000 </r>
       <r>  -16.1530    1.0000 </r>
       <r>   -7.1769    1.0000 </r>
       <r>   -7.1769    1.0000 </r>
       <r>   -4.3370    1.0000 </r>
       <r>   -4.3310    1.0000 </r>
       <r>   -4.1787    1.0000 </r>
       <r>   -4.1787    1.0000 </r>
       <r>   -1.8603    1.0000 </r>
       <r>   -1.8603    1.0000 </r>
       <r>   -1.6231    1.0000 </r>
       <r>   -1.3629    1.0000 </r>
       <r>   -0.4124    1.0000 </r>
       <r>   -0.4124    1.0000 </r>
       <r>   -0.3944    1.0000 </r>
       <r>    0.1087    1.0000 </r>
       <r>    0.1087    1.0000 </r>
       <r>    0.4180    1.0000 </r>
       <r>    0.7584    1.0000 </r>
       <r>    0.7584    1.0000 </r>
       <r>    7.1197    0.0000 </r>
       <r>   10.3976    0.0000 </r>
       <r>   10.3976    0.0000 </r>
       <r>   10.8989    0.0000 </r>
       <r>   10.8990    0.0000 </r>
       <r>   12.7572    0.0000 </r>
      </set>
      <set comment="kpoint 2">
       <r>  -18.2909    1.0000 </r>
       <r>  -16.9300    1.0000 </r>
       <r>  -16.8238    1.0000 </r>
       <r>  -16.2207    1.0000 </r>
       <r>  -16.1701    1.0000 </r>
       <r>  -16.1595    1.0000 </r>
       <r>   -7.2145    1.0000 </r>
       <r>   -6.9953    1.0000 </r>
       <r>   -4.3770    1.0000 </r>
       <r>   -4.3510    1.0000 </r>
       <r>   -4.2795    1.0000 </r>
       <r>   -4.0182    1.0000 </r>
       <r>   -1.9855    1.0000 </r>
       <r>   -1.8005    1.0000 </r>
       <r>   -1.5929    1.0000 </r>
       <r>   -1.1966    1.0000 </r>
       <r>   -0.6858    1.0000 </r>
       <r>   -0.4512    1.0000 </r>
       <r>   -0.4058    1.0000 </r>
       <r>    0.0460    1.0000 </r>
       <r>    0.0987    1.0000 </r>
       <r>    0.3157    1.0000 </r>
       <r>    0.8217    1.0000 </r>
       <r>    0.8554    1.0000 </r>
       <r>    7.5417    0.0000 </r>
       <r>   10.3842    0.0000 </r>
       <r>   10.4444    0.0000 </r>
       <r>   10.9340    0.0000 </r>
       <r>   11.0423    0.0000 </r>
       <r>   12.3381    0.0000 </r>
      </set>
      <set comment="kpoint 3">
       <r>  -18.0720    1.0000 </r>
       <r>  -17.1892    1.0000 </r>
       <r>  -16.7983    1.0000 </r>
       <r>  -16.2438    1.0000 </r>
       <r>  -16.1985    1.0000 </r>
       <r>  -16.1786    1.0000 </r>
       <r>   -7.2861    1.0000 </r>
       <r>   -6.5758    1.0000 </r>
       <r>   -4.6329    1.0000 </r>
       <r>   -4.3847    1.0000 </r>
       <r>   -4.3028    1.0000 </r>
       <r>   -3.7159    1.0000 </r>
       <r>   -2.0679    1.0000 </r>
       <r>   -1.6923    1.0000 </r>
       <r>   -1.5676    1.0000 </r>
       <r>   -1.2006    1.0000 </r>
       <r>   -1.0016    1.0000 </r>
       <r>   -0.5823    1.0000 </r>
       <r>   -0.4905    1.0000 </r>
       <r>   -0.0053    1.0000 </r>
       <r>    0.0640    1.0000 </r>
       <r>    0.2669    1.0000 </r>
       <r>    0.8496    1.0000 </r>
       <r>    0.9989    1.0000 </r>
       <r>    8.5405    0.0000 </r>
       <r>   10.4273    0.0000 </r>
       <r>   10.5547    0.0000 </r>
       <r>   11.0550    0.0000 </r>
       <r>   11.3925    0.0000 </r>
       <r>   11.7547    0.0000 </r>
      </set>
      <set comment="kpoint 4">
       <r>  -17.8825    1.0000 </r>
       <r>  -17.4037    1.0000 </r>
       <r>  -16.7846    1.0000 </r>
       <r>  -16.2497    1.0000 </r>
       <r>  -16.2112    1.0000 </r>
       <r>  -16.1901    1.0000 </r>
       <r>   -7.3205    1.0000 </r>
       <r>   -6.3136    1.0000 </r>
       <r>   -4.8211    1.0000 </r>
       <r>   -4.3621    1.0000 </r>
       <r>   -4.3310    1.0000 </r>
       <r>   -3.5502    1.0000 </r>
       <r>   -1.9959    1.0000 </r>
       <r>   -1.8294    1.0000 </r>
       <r>   -1.5988    1.0000 </r>
       <r>   -1.2178    1.0000 </r>
       <r>   -1.0096    1.0000 </r>
       <r>   -0.6652    1.0000 </r>
       <r>   -0.5979    1.0000 </r>
       <r>   -0.0083    1.0000 </r>
       <r>    0.0569    1.0000 </r>
       <r>    0.2974    1.0000 </r>
       <r>    0.8327    1.0000 </r>
       <r>    1.0565    1.0000 </r>
       <r>    9.3782    0.0000 </r>
       <r>   10.1149    0.0000 </r>
       <r>   10.8424    0.0000 </r>
       <r>   10.8432    0.0000 </r>
       <r>   11.6213    0.0000 </r>
       <r>   11.6966    0.0000 </r>
      </set>
      <set comment="kpoint 5">
       <r>  -18.1382    1.0000 </r>
       <r>  -17.1059    1.0000 </r>
       <r>  -16.8123    1.0000 </r>
       <r>  -16.2386    1.0000 </r>
       <r>  -16.1955    1.0000 </r>
       <r>  -16.1690    1.0000 </r>
       <r>   -7.2786    1.0000 </r>
       <r>   -6.6695    1.0000 </r>
       <r>   -4.6407    1.0000 </r>
       <r>   -4.3697    1.0000 </r>
       <r>   -4.2278    1.0000 </r>
       <r>   -3.8054    1.0000 </r>
       <r>   -2.0350    1.0000 </r>
       <r>   -1.7876    1.0000 </r>
       <r>   -1.4879    1.0000 </r>
       <r>   -1.0880    1.0000 </r>
       <r>   -1.0803    1.0000 </r>
       <r>   -0.5611    1.0000 </r>
       <r>   -0.3632    1.0000 </r>
       <r>   -0.1315    1.0000 </r>
       <r>    0.1815    1.0000 </r>
       <r>    0.2268    1.0000 </r>
       <r>    0.8405    1.0000 </r>
       <r>    0.9764    1.0000 </r>
       <r>    8.2492    0.0000 </r>
       <r>   10.4267    0.0000 </r>
       <r>   10.5685    0.0000 </r>
       <r>   11.0512    0.0000 </r>
       <r>   11.2208    0.0000 </r>
       <r>   11.9483    0.0000 </r>
      </set>
      <set comment="kpoint 6">
       <r>  -17.8893    1.0000 </r>
       <r>  -17.3843    1.0000 </r>
       <r>  -16.8045    1.0000 </r>
       <r>  -16.2470    1.0000 </r>
       <r>  -16.2095    1.0000 </r>
       <r>  -16.1873    1.0000 </r>
       <r>   -7.3437    1.0000 </r>
       <r>   -6.2135    1.0000 </r>
       <r>   -5.0401    1.0000 </r>
       <r>   -4.3219    1.0000 </r>
       <r>   -4.2302    1.0000 </r>
       <r>   -3.5580    1.0000 </r>
       <r>   -1.9842    1.0000 </r>
       <r>   -1.7853    1.0000 </r>
       <r>   -1.6588    1.0000 </r>
       <r>   -1.1650    1.0000 </r>
       <r>   -1.0026    1.0000 </r>
       <r>   -0.6963    1.0000 </r>
       <r>   -0.5080    1.0000 </r>
       <r>   -0.1898    1.0000 </r>
       <r>    0.0295    1.0000 </r>
       <r>    0.4218    1.0000 </r>
       <r>    0.7991    1.0000 </r>
       <r>    1.0679    1.0000 </r>
       <r>    9.2658    0.0000 </r>
       <r>   10.3651    0.0000 </r>
       <r>   10.6824    0.0000 </r>
       <r>   11.0857    0.0000 </r>
       <r>   11.4948    0.0000 </r>
       <r>   11.7131    0.0000 </r>
      </set>
      <set comment="kpoint 7">
       <r>  -17.6373    1.0000 </r>
       <r>  -17.6373    1.0000 </r>
       <r>  -16.8185    1.0000 </r>
       <r>  -16.2459    1.0000 </r>
       <r>  -16.2017    1.0000 </r>
       <r>  -16.2017    1.0000 </r>
       <r>   -7.3814    1.0000 </r>
       <r>   -5.6430    1.0000 </r>
       <r>   -5.6429    1.0000 </r>
       <r>   -4.2393    1.0000 </r>
       <r>   -4.2393    1.0000 </r>
       <r>   -3.4637    1.0000 </r>
       <r>   -1.8546    1.0000 </r>
       <r>   -1.8546    1.0000 </r>
       <r>   -1.8038    1.0000 </r>
       <r>   -0.9778    1.0000 </r>
       <r>   -0.9778    1.0000 </r>
       <r>   -0.8219    1.0000 </r>
       <r>   -0.6253    1.0000 </r>
       <r>   -0.1473    1.0000 </r>
       <r>   -0.1473    1.0000 </r>
       <r>    0.6575    1.0000 </r>
       <r>    0.6575    1.0000 </r>
       <r>    1.0991    1.0000 </r>
       <r>   10.0496    0.0000 </r>
       <r>   10.0496    0.0000 </r>
       <r>   10.5372    0.0000 </r>
       <r>   11.4750    0.0000 </r>
       <r>   11.6181    0.0000 </r>
       <r>   11.6462    0.0000 </r>
      </set>
      <set comment="kpoint 8">
       <r>  -18.2939    1.0000 </r>
       <r>  -17.2848    1.0000 </r>
       <r>  -16.4512    1.0000 </r>
       <r>  -16.1988    1.0000 </r>
       <r>  -16.1687    1.0000 </r>
       <r>  -16.1379    1.0000 </r>
       <r>   -7.8498    1.0000 </r>
       <r>   -6.3498    1.0000 </r>
       <r>   -4.4966    1.0000 </r>
       <r>   -4.4201    1.0000 </r>
       <r>   -4.3714    1.0000 </r>
       <r>   -3.8734    1.0000 </r>
       <r>   -1.9443    1.0000 </r>
       <r>   -1.6658    1.0000 </r>
       <r>   -1.5650    1.0000 </r>
       <r>   -1.2330    1.0000 </r>
       <r>   -0.6055    1.0000 </r>
       <r>   -0.4846    1.0000 </r>
       <r>   -0.4244    1.0000 </r>
       <r>   -0.2845    1.0000 </r>
       <r>    0.0770    1.0000 </r>
       <r>    0.5184    1.0000 </r>
       <r>    0.8089    1.0000 </r>
       <r>    0.9683    1.0000 </r>
       <r>    7.5138    0.0000 </r>
       <r>   10.2545    0.0000 </r>
       <r>   10.4188    0.0000 </r>
       <r>   10.5199    0.0000 </r>
       <r>   11.2222    0.0000 </r>
       <r>   12.1413    0.0000 </r>
      </set>
      <set comment="kpoint 9">
       <r>  -18.2167    1.0000 </r>
       <r>  -17.2839    1.0000 </r>
       <r>  -16.5344    1.0000 </r>
       <r>  -16.2137    1.0000 </r>
       <r>  -16.1879    1.0000 </r>
       <r>  -16.1492    1.0000 </r>
       <r>   -7.7049    1.0000 </r>
       <r>   -6.3580    1.0000 </r>
       <r>   -4.6748    1.0000 </r>
       <r>   -4.3784    1.0000 </r>
       <r>   -4.1821    1.0000 </r>
       <r>   -3.9230    1.0000 </r>
       <r>   -2.0444    1.0000 </r>
       <r>   -1.6498    1.0000 </r>
       <r>   -1.5291    1.0000 </r>
       <r>   -1.1554    1.0000 </r>
       <r>   -0.8350    1.0000 </r>
       <r>   -0.4986    1.0000 </r>
       <r>   -0.3954    1.0000 </r>
       <r>   -0.2405    1.0000 </r>
       <r>    0.1598    1.0000 </r>
       <r>    0.4146    1.0000 </r>
       <r>    0.7503    1.0000 </r>
       <r>    1.0100    1.0000 </r>
       <r>    7.8896    0.0000 </r>
       <r>   10.2683    0.0000 </r>
       <r>   10.5102    0.0000 </r>
       <r>   10.6048    0.0000 </r>
       <r>   11.2973    0.0000 </r>
       <r>   11.9802    0.0000 </r>
      </set>
      <set comment="kpoint 10">
       <r>  -18.0150    1.0000 </r>
       <r>  -17.3240    1.0000 </r>
       <r>  -16.7206    1.0000 </r>
       <r>  -16.2412    1.0000 </r>
       <r>  -16.2140    1.0000 </r>
       <r>  -16.1689    1.0000 </r>
       <r>   -7.4118    1.0000 </r>
       <r>   -6.3298    1.0000 </r>
       <r>   -4.9099    1.0000 </r>
       <r>   -4.3371    1.0000 </r>
       <r>   -4.1010    1.0000 </r>
       <r>   -3.8269    1.0000 </r>
       <r>   -2.1396    1.0000 </r>
       <r>   -1.7124    1.0000 </r>
       <r>   -1.4753    1.0000 </r>
       <r>   -1.2126    1.0000 </r>
       <r>   -0.8968    1.0000 </r>
       <r>   -0.6035    1.0000 </r>
       <r>   -0.4928    1.0000 </r>
       <r>   -0.0555    1.0000 </r>
       <r>    0.1594    1.0000 </r>
       <r>    0.2790    1.0000 </r>
       <r>    0.7929    1.0000 </r>
       <r>    0.9653    1.0000 </r>
       <r>    8.8053    0.0000 </r>
       <r>   10.3201    0.0000 </r>
       <r>   10.5722    0.0000 </r>
       <r>   11.0313    0.0000 </r>
       <r>   11.4047    0.0000 </r>
       <r>   11.6553    0.0000 </r>
      </set>
      <set comment="kpoint 11">
       <r>  -17.8601    1.0000 </r>
       <r>  -17.3927    1.0000 </r>
       <r>  -16.8312    1.0000 </r>
       <r>  -16.2501    1.0000 </r>
       <r>  -16.2158    1.0000 </r>
       <r>  -16.1813    1.0000 </r>
       <r>   -7.2729    1.0000 </r>
       <r>   -6.2744    1.0000 </r>
       <r>   -5.0455    1.0000 </r>
       <r>   -4.3586    1.0000 </r>
       <r>   -4.1065    1.0000 </r>
       <r>   -3.6735    1.0000 </r>
       <r>   -2.0479    1.0000 </r>
       <r>   -1.9470    1.0000 </r>
       <r>   -1.4718    1.0000 </r>
       <r>   -1.2627    1.0000 </r>
       <r>   -0.8464    1.0000 </r>
       <r>   -0.7265    1.0000 </r>
       <r>   -0.4222    1.0000 </r>
       <r>   -0.0743    1.0000 </r>
       <r>    0.1385    1.0000 </r>
       <r>    0.3312    1.0000 </r>
       <r>    0.7198    1.0000 </r>
       <r>    0.9958    1.0000 </r>
       <r>    9.5715    0.0000 </r>
       <r>   10.1808    0.0000 </r>
       <r>   10.6855    0.0000 </r>
       <r>   11.1519    0.0000 </r>
       <r>   11.5768    0.0000 </r>
       <r>   11.6829    0.0000 </r>
      </set>
      <set comment="kpoint 12">
       <r>  -18.0187    1.0000 </r>
       <r>  -17.3039    1.0000 </r>
       <r>  -16.7541    1.0000 </r>
       <r>  -16.2334    1.0000 </r>
       <r>  -16.1931    1.0000 </r>
       <r>  -16.1803    1.0000 </r>
       <r>   -7.4154    1.0000 </r>
       <r>   -6.3311    1.0000 </r>
       <r>   -4.9116    1.0000 </r>
       <r>   -4.3763    1.0000 </r>
       <r>   -4.0779    1.0000 </r>
       <r>   -3.7775    1.0000 </r>
       <r>   -2.0753    1.0000 </r>
       <r>   -1.7039    1.0000 </r>
       <r>   -1.5285    1.0000 </r>
       <r>   -1.3910    1.0000 </r>
       <r>   -0.9264    1.0000 </r>
       <r>   -0.5020    1.0000 </r>
       <r>   -0.3486    1.0000 </r>
       <r>   -0.0914    1.0000 </r>
       <r>    0.0614    1.0000 </r>
       <r>    0.3929    1.0000 </r>
       <r>    0.6350    1.0000 </r>
       <r>    1.0587    1.0000 </r>
       <r>    8.7717    0.0000 </r>
       <r>   10.3796    0.0000 </r>
       <r>   10.7670    0.0000 </r>
       <r>   11.1865    0.0000 </r>
       <r>   11.3651    0.0000 </r>
       <r>   11.6853    0.0000 </r>
      </set>
      <set comment="kpoint 13">
       <r>  -18.2173    1.0000 </r>
       <r>  -17.2799    1.0000 </r>
       <r>  -16.5456    1.0000 </r>
       <r>  -16.2124    1.0000 </r>
       <r>  -16.1773    1.0000 </r>
       <r>  -16.1532    1.0000 </r>
       <r>   -7.7060    1.0000 </r>
       <r>   -6.3581    1.0000 </r>
       <r>   -4.6791    1.0000 </r>
       <r>   -4.3795    1.0000 </r>
       <r>   -4.1963    1.0000 </r>
       <r>   -3.8945    1.0000 </r>
       <r>   -2.0177    1.0000 </r>
       <r>   -1.6671    1.0000 </r>
       <r>   -1.5236    1.0000 </r>
       <r>   -1.2062    1.0000 </r>
       <r>   -0.8781    1.0000 </r>
       <r>   -0.4133    1.0000 </r>
       <r>   -0.3842    1.0000 </r>
       <r>   -0.2609    1.0000 </r>
       <r>    0.1900    1.0000 </r>
       <r>    0.3760    1.0000 </r>
       <r>    0.7247    1.0000 </r>
       <r>    1.0395    1.0000 </r>
       <r>    7.8799    0.0000 </r>
       <r>   10.3068    0.0000 </r>
       <r>   10.5358    0.0000 </r>
       <r>   10.6540    0.0000 </r>
       <r>   11.2297    0.0000 </r>
       <r>   12.0192    0.0000 </r>
      </set>
      <set comment="kpoint 14">
       <r>  -18.0759    1.0000 </r>
       <r>  -17.2967    1.0000 </r>
       <r>  -16.6875    1.0000 </r>
       <r>  -16.2296    1.0000 </r>
       <r>  -16.2041    1.0000 </r>
       <r>  -16.1657    1.0000 </r>
       <r>   -7.4882    1.0000 </r>
       <r>   -6.3318    1.0000 </r>
       <r>   -4.8886    1.0000 </r>
       <r>   -4.3433    1.0000 </r>
       <r>   -4.0740    1.0000 </r>
       <r>   -3.8625    1.0000 </r>
       <r>   -2.0965    1.0000 </r>
       <r>   -1.6503    1.0000 </r>
       <r>   -1.5316    1.0000 </r>
       <r>   -1.2596    1.0000 </r>
       <r>   -0.9444    1.0000 </r>
       <r>   -0.4952    1.0000 </r>
       <r>   -0.4138    1.0000 </r>
       <r>   -0.1329    1.0000 </r>
       <r>    0.1764    1.0000 </r>
       <r>    0.3069    1.0000 </r>
       <r>    0.7107    1.0000 </r>
       <r>    1.0277    1.0000 </r>
       <r>    8.5205    0.0000 </r>
       <r>   10.3264    0.0000 </r>
       <r>   10.7362    0.0000 </r>
       <r>   10.8858    0.0000 </r>
       <r>   11.3503    0.0000 </r>
       <r>   11.7290    0.0000 </r>
      </set>
      <set comment="kpoint 15">
       <r>  -17.8618    1.0000 </r>
       <r>  -17.3909    1.0000 </r>
       <r>  -16.8279    1.0000 </r>
       <r>  -16.2487    1.0000 </r>
       <r>  -16.2243    1.0000 </r>
       <r>  -16.1779    1.0000 </r>
       <r>   -7.2860    1.0000 </r>
       <r>   -6.1907    1.0000 </r>
       <r>   -5.1869    1.0000 </r>
       <r>   -4.3213    1.0000 </r>
       <r>   -4.0740    1.0000 </r>
       <r>   -3.6917    1.0000 </r>
       <r>   -2.0924    1.0000 </r>
       <r>   -1.8148    1.0000 </r>
       <r>   -1.5890    1.0000 </r>
       <r>   -1.1327    1.0000 </r>
       <r>   -0.9000    1.0000 </r>
       <r>   -0.7078    1.0000 </r>
       <r>   -0.4216    1.0000 </r>
       <r>   -0.1389    1.0000 </r>
       <r>    0.1210    1.0000 </r>
       <r>    0.3734    1.0000 </r>
       <r>    0.7373    1.0000 </r>
       <r>    0.9699    1.0000 </r>
       <r>    9.4549    0.0000 </r>
       <r>   10.4443    0.0000 </r>
       <r>   10.6039    0.0000 </r>
       <r>   11.2060    0.0000 </r>
       <r>   11.4087    0.0000 </r>
       <r>   11.6829    0.0000 </r>
      </set>
      <set comment="kpoint 16">
       <r>  -17.8645    1.0000 </r>
       <r>  -17.3815    1.0000 </r>
       <r>  -16.8397    1.0000 </r>
       <r>  -16.2438    1.0000 </r>
       <r>  -16.2229    1.0000 </r>
       <r>  -16.1790    1.0000 </r>
       <r>   -7.2872    1.0000 </r>
       <r>   -6.1918    1.0000 </r>
       <r>   -5.1866    1.0000 </r>
       <r>   -4.3307    1.0000 </r>
       <r>   -4.0678    1.0000 </r>
       <r>   -3.6769    1.0000 </r>
       <r>   -2.0566    1.0000 </r>
       <r>   -1.8415    1.0000 </r>
       <r>   -1.6073    1.0000 </r>
       <r>   -1.1864    1.0000 </r>
       <r>   -0.9121    1.0000 </r>
       <r>   -0.6735    1.0000 </r>
       <r>   -0.3241    1.0000 </r>
       <r>   -0.1870    1.0000 </r>
       <r>    0.0713    1.0000 </r>
       <r>    0.4549    1.0000 </r>
       <r>    0.6506    1.0000 </r>
       <r>    1.0061    1.0000 </r>
       <r>    9.4446    0.0000 </r>
       <r>   10.3528    0.0000 </r>
       <r>   10.9099    0.0000 </r>
       <r>   11.0642    0.0000 </r>
       <r>   11.4576    0.0000 </r>
       <r>   11.7526    0.0000 </r>
      </set>
      <set comment="kpoint 17">
       <r>  -17.7367    1.0000 </r>
       <r>  -17.4751    1.0000 </r>
       <r>  -16.8785    1.0000 </r>
       <r>  -16.2432    1.0000 </r>
       <r>  -16.2406    1.0000 </r>
       <r>  -16.1813    1.0000 </r>
       <r>   -7.2415    1.0000 </r>
       <r>   -5.9355    1.0000 </r>
       <r>   -5.5191    1.0000 </r>
       <r>   -4.2988    1.0000 </r>
       <r>   -4.0635    1.0000 </r>
       <r>   -3.6189    1.0000 </r>
       <r>   -2.0604    1.0000 </r>
       <r>   -1.7569    1.0000 </r>
       <r>   -1.7536    1.0000 </r>
       <r>   -0.9688    1.0000 </r>
       <r>   -0.9129    1.0000 </r>
       <r>   -0.8463    1.0000 </r>
       <r>   -0.3641    1.0000 </r>
       <r>   -0.2084    1.0000 </r>
       <r>    0.0257    1.0000 </r>
       <r>    0.5728    1.0000 </r>
       <r>    0.6185    1.0000 </r>
       <r>    0.9650    1.0000 </r>
       <r>   10.0538    0.0000 </r>
       <r>   10.2542    0.0000 </r>
       <r>   10.6631    0.0000 </r>
       <r>   11.3708    0.0000 </r>
       <r>   11.4364    0.0000 </r>
       <r>   11.5244    0.0000 </r>
      </set>
      <set comment="kpoint 18">
       <r>  -18.0667    1.0000 </r>
       <r>  -17.7160    1.0000 </r>
       <r>  -16.2242    1.0000 </r>
       <r>  -16.1922    1.0000 </r>
       <r>  -16.1821    1.0000 </r>
       <r>  -16.1286    1.0000 </r>
       <r>   -8.2302    1.0000 </r>
       <r>   -5.5315    1.0000 </r>
       <r>   -4.8818    1.0000 </r>
       <r>   -4.5353    1.0000 </r>
       <r>   -4.5031    1.0000 </r>
       <r>   -3.6339    1.0000 </r>
       <r>   -1.7865    1.0000 </r>
       <r>   -1.5560    1.0000 </r>
       <r>   -1.5133    1.0000 </r>
       <r>   -1.0236    1.0000 </r>
       <r>   -0.8463    1.0000 </r>
       <r>   -0.7477    1.0000 </r>
       <r>   -0.6372    1.0000 </r>
       <r>   -0.4604    1.0000 </r>
       <r>   -0.0931    1.0000 </r>
       <r>    0.7628    1.0000 </r>
       <r>    0.9786    1.0000 </r>
       <r>    0.9795    1.0000 </r>
       <r>    8.4948    0.0000 </r>
       <r>    9.6458    0.0000 </r>
       <r>   10.1998    0.0000 </r>
       <r>   10.5269    0.0000 </r>
       <r>   11.2512    0.0000 </r>
       <r>   11.6904    0.0000 </r>
      </set>
      <set comment="kpoint 19">
       <r>  -18.0048    1.0000 </r>
       <r>  -17.6743    1.0000 </r>
       <r>  -16.3455    1.0000 </r>
       <r>  -16.2134    1.0000 </r>
       <r>  -16.1898    1.0000 </r>
       <r>  -16.1429    1.0000 </r>
       <r>   -8.0304    1.0000 </r>
       <r>   -5.6360    1.0000 </r>
       <r>   -5.0501    1.0000 </r>
       <r>   -4.4350    1.0000 </r>
       <r>   -4.3374    1.0000 </r>
       <r>   -3.6907    1.0000 </r>
       <r>   -1.9265    1.0000 </r>
       <r>   -1.6447    1.0000 </r>
       <r>   -1.4954    1.0000 </r>
       <r>   -1.1219    1.0000 </r>
       <r>   -0.9448    1.0000 </r>
       <r>   -0.5719    1.0000 </r>
       <r>   -0.5247    1.0000 </r>
       <r>   -0.3233    1.0000 </r>
       <r>   -0.0200    1.0000 </r>
       <r>    0.6512    1.0000 </r>
       <r>    0.9041    1.0000 </r>
       <r>    0.9339    1.0000 </r>
       <r>    8.7733    0.0000 </r>
       <r>    9.7824    0.0000 </r>
       <r>   10.3719    0.0000 </r>
       <r>   10.5676    0.0000 </r>
       <r>   11.3130    0.0000 </r>
       <r>   11.7434    0.0000 </r>
      </set>
      <set comment="kpoint 20">
       <r>  -17.8765    1.0000 </r>
       <r>  -17.5382    1.0000 </r>
       <r>  -16.6582    1.0000 </r>
       <r>  -16.2541    1.0000 </r>
       <r>  -16.1965    1.0000 </r>
       <r>  -16.1654    1.0000 </r>
       <r>   -7.5444    1.0000 </r>
       <r>   -5.9355    1.0000 </r>
       <r>   -5.2334    1.0000 </r>
       <r>   -4.3157    1.0000 </r>
       <r>   -4.0621    1.0000 </r>
       <r>   -3.8263    1.0000 </r>
       <r>   -2.1066    1.0000 </r>
       <r>   -1.9236    1.0000 </r>
       <r>   -1.3513    1.0000 </r>
       <r>   -1.1860    1.0000 </r>
       <r>   -0.9452    1.0000 </r>
       <r>   -0.4865    1.0000 </r>
       <r>   -0.3535    1.0000 </r>
       <r>   -0.1442    1.0000 </r>
       <r>    0.1195    1.0000 </r>
       <r>    0.4553    1.0000 </r>
       <r>    0.6808    1.0000 </r>
       <r>    0.8788    1.0000 </r>
       <r>    9.4986    0.0000 </r>
       <r>   10.0803    0.0000 </r>
       <r>   10.6257    0.0000 </r>
       <r>   10.7997    0.0000 </r>
       <r>   11.5575    0.0000 </r>
       <r>   11.8567    0.0000 </r>
      </set>
      <set comment="kpoint 21">
       <r>  -17.8204    1.0000 </r>
       <r>  -17.3740    1.0000 </r>
       <r>  -16.9062    1.0000 </r>
       <r>  -16.2714    1.0000 </r>
       <r>  -16.1987    1.0000 </r>
       <r>  -16.1753    1.0000 </r>
       <r>   -7.1898    1.0000 </r>
       <r>   -6.2087    1.0000 </r>
       <r>   -5.2846    1.0000 </r>
       <r>   -4.2870    1.0000 </r>
       <r>   -3.9228    1.0000 </r>
       <r>   -3.8896    1.0000 </r>
       <r>   -2.1162    1.0000 </r>
       <r>   -2.0873    1.0000 </r>
       <r>   -1.3626    1.0000 </r>
       <r>   -1.1069    1.0000 </r>
       <r>   -0.9535    1.0000 </r>
       <r>   -0.5146    1.0000 </r>
       <r>   -0.2119    1.0000 </r>
       <r>   -0.0663    1.0000 </r>
       <r>    0.1273    1.0000 </r>
       <r>    0.4101    1.0000 </r>
       <r>    0.4666    1.0000 </r>
       <r>    0.9071    1.0000 </r>
       <r>    9.9971    0.0000 </r>
       <r>   10.3842    0.0000 </r>
       <r>   10.7484    0.0000 </r>
       <r>   11.0603    0.0000 </r>
       <r>   11.4698    0.0000 </r>
       <r>   11.7893    0.0000 </r>
      </set>
      <set comment="kpoint 22">
       <r>  -17.8822    1.0000 </r>
       <r>  -17.5259    1.0000 </r>
       <r>  -16.6758    1.0000 </r>
       <r>  -16.2470    1.0000 </r>
       <r>  -16.1882    1.0000 </r>
       <r>  -16.1695    1.0000 </r>
       <r>   -7.5462    1.0000 </r>
       <r>   -5.9401    1.0000 </r>
       <r>   -5.2275    1.0000 </r>
       <r>   -4.3366    1.0000 </r>
       <r>   -4.0628    1.0000 </r>
       <r>   -3.7873    1.0000 </r>
       <r>   -2.0835    1.0000 </r>
       <r>   -1.9468    1.0000 </r>
       <r>   -1.3212    1.0000 </r>
       <r>   -1.2570    1.0000 </r>
       <r>   -1.0061    1.0000 </r>
       <r>   -0.4130    1.0000 </r>
       <r>   -0.3024    1.0000 </r>
       <r>   -0.1128    1.0000 </r>
       <r>    0.1311    1.0000 </r>
       <r>    0.3253    1.0000 </r>
       <r>    0.6296    1.0000 </r>
       <r>    0.9780    1.0000 </r>
       <r>    9.3810    0.0000 </r>
       <r>   10.3556    0.0000 </r>
       <r>   10.5565    0.0000 </r>
       <r>   11.0712    0.0000 </r>
       <r>   11.2093    0.0000 </r>
       <r>   11.6753    0.0000 </r>
      </set>
      <set comment="kpoint 23">
       <r>  -18.0061    1.0000 </r>
       <r>  -17.6720    1.0000 </r>
       <r>  -16.3554    1.0000 </r>
       <r>  -16.2107    1.0000 </r>
       <r>  -16.1820    1.0000 </r>
       <r>  -16.1445    1.0000 </r>
       <r>   -8.0309    1.0000 </r>
       <r>   -5.6373    1.0000 </r>
       <r>   -5.0494    1.0000 </r>
       <r>   -4.4313    1.0000 </r>
       <r>   -4.3460    1.0000 </r>
       <r>   -3.6794    1.0000 </r>
       <r>   -1.9196    1.0000 </r>
       <r>   -1.6418    1.0000 </r>
       <r>   -1.4930    1.0000 </r>
       <r>   -1.1508    1.0000 </r>
       <r>   -0.9770    1.0000 </r>
       <r>   -0.5693    1.0000 </r>
       <r>   -0.4527    1.0000 </r>
       <r>   -0.3479    1.0000 </r>
       <r>   -0.0197    1.0000 </r>
       <r>    0.6494    1.0000 </r>
       <r>    0.8141    1.0000 </r>
       <r>    1.0194    1.0000 </r>
       <r>    8.7474    0.0000 </r>
       <r>    9.8375    0.0000 </r>
       <r>   10.3309    0.0000 </r>
       <r>   10.6859    0.0000 </r>
       <r>   11.2023    0.0000 </r>
       <r>   11.6540    0.0000 </r>
      </set>
      <set comment="kpoint 24">
       <r>  -17.9095    1.0000 </r>
       <r>  -17.5816    1.0000 </r>
       <r>  -16.5718    1.0000 </r>
       <r>  -16.2384    1.0000 </r>
       <r>  -16.1922    1.0000 </r>
       <r>  -16.1665    1.0000 </r>
       <r>   -7.6819    1.0000 </r>
       <r>   -5.8272    1.0000 </r>
       <r>   -5.2297    1.0000 </r>
       <r>   -4.3143    1.0000 </r>
       <r>   -4.1539    1.0000 </r>
       <r>   -3.7719    1.0000 </r>
       <r>   -2.0624    1.0000 </r>
       <r>   -1.8419    1.0000 </r>
       <r>   -1.3893    1.0000 </r>
       <r>   -1.2465    1.0000 </r>
       <r>   -0.9378    1.0000 </r>
       <r>   -0.4993    1.0000 </r>
       <r>   -0.3576    1.0000 </r>
       <r>   -0.1486    1.0000 </r>
       <r>    0.0858    1.0000 </r>
       <r>    0.4546    1.0000 </r>
       <r>    0.7408    1.0000 </r>
       <r>    0.9058    1.0000 </r>
       <r>    9.2299    0.0000 </r>
       <r>   10.0922    0.0000 </r>
       <r>   10.5300    0.0000 </r>
       <r>   10.9154    0.0000 </r>
       <r>   11.2987    0.0000 </r>
       <r>   11.6588    0.0000 </r>
      </set>
      <set comment="kpoint 25">
       <r>  -17.8139    1.0000 </r>
       <r>  -17.3993    1.0000 </r>
       <r>  -16.8748    1.0000 </r>
       <r>  -16.2691    1.0000 </r>
       <r>  -16.2072    1.0000 </r>
       <r>  -16.1825    1.0000 </r>
       <r>   -7.1834    1.0000 </r>
       <r>   -6.1632    1.0000 </r>
       <r>   -5.3742    1.0000 </r>
       <r>   -4.2334    1.0000 </r>
       <r>   -3.9670    1.0000 </r>
       <r>   -3.8855    1.0000 </r>
       <r>   -2.1546    1.0000 </r>
       <r>   -1.9575    1.0000 </r>
       <r>   -1.4630    1.0000 </r>
       <r>   -1.0968    1.0000 </r>
       <r>   -0.8815    1.0000 </r>
       <r>   -0.6391    1.0000 </r>
       <r>   -0.1558    1.0000 </r>
       <r>   -0.0370    1.0000 </r>
       <r>    0.1903    1.0000 </r>
       <r>    0.3665    1.0000 </r>
       <r>    0.5561    1.0000 </r>
       <r>    0.7852    1.0000 </r>
       <r>    9.9208    0.0000 </r>
       <r>   10.4283    0.0000 </r>
       <r>   10.7260    0.0000 </r>
       <r>   11.1367    0.0000 </r>
       <r>   11.4818    0.0000 </r>
       <r>   11.6678    0.0000 </r>
      </set>
      <set comment="kpoint 26">
       <r>  -17.8161    1.0000 </r>
       <r>  -17.3923    1.0000 </r>
       <r>  -16.8826    1.0000 </r>
       <r>  -16.2662    1.0000 </r>
       <r>  -16.2062    1.0000 </r>
       <r>  -16.1832    1.0000 </r>
       <r>   -7.1842    1.0000 </r>
       <r>   -6.1648    1.0000 </r>
       <r>   -5.3720    1.0000 </r>
       <r>   -4.2422    1.0000 </r>
       <r>   -3.9698    1.0000 </r>
       <r>   -3.8683    1.0000 </r>
       <r>   -2.1486    1.0000 </r>
       <r>   -1.9631    1.0000 </r>
       <r>   -1.4701    1.0000 </r>
       <r>   -1.0948    1.0000 </r>
       <r>   -0.9288    1.0000 </r>
       <r>   -0.5905    1.0000 </r>
       <r>   -0.1614    1.0000 </r>
       <r>    0.0217    1.0000 </r>
       <r>    0.1848    1.0000 </r>
       <r>    0.2941    1.0000 </r>
       <r>    0.5349    1.0000 </r>
       <r>    0.8291    1.0000 </r>
       <r>    9.8639    0.0000 </r>
       <r>   10.5288    0.0000 </r>
       <r>   10.7969    0.0000 </r>
       <r>   11.1220    0.0000 </r>
       <r>   11.3079    0.0000 </r>
       <r>   11.6822    0.0000 </r>
      </set>
      <set comment="kpoint 27">
       <r>  -17.7804    1.0000 </r>
       <r>  -17.2634    1.0000 </r>
       <r>  -17.0438    1.0000 </r>
       <r>  -16.2769    1.0000 </r>
       <r>  -16.2195    1.0000 </r>
       <r>  -16.1918    1.0000 </r>
       <r>   -6.8692    1.0000 </r>
       <r>   -6.3847    1.0000 </r>
       <r>   -5.4826    1.0000 </r>
       <r>   -4.1835    1.0000 </r>
       <r>   -3.9270    1.0000 </r>
       <r>   -3.9260    1.0000 </r>
       <r>   -2.1868    1.0000 </r>
       <r>   -1.7467    1.0000 </r>
       <r>   -1.7313    1.0000 </r>
       <r>   -0.8887    1.0000 </r>
       <r>   -0.8650    1.0000 </r>
       <r>   -0.8585    1.0000 </r>
       <r>    0.0136    1.0000 </r>
       <r>    0.0302    1.0000 </r>
       <r>    0.1956    1.0000 </r>
       <r>    0.4187    1.0000 </r>
       <r>    0.4404    1.0000 </r>
       <r>    0.6473    1.0000 </r>
       <r>   10.1464    0.0000 </r>
       <r>   10.6996    0.0000 </r>
       <r>   10.9236    0.0000 </r>
       <r>   11.2089    0.0000 </r>
       <r>   11.3140    0.0000 </r>
       <r>   11.3818    0.0000 </r>
      </set>
     </set>
    </set>
   </array>
  </eigenvalues>
  <separator name="orbital magnetization" >
   <v name="MAGDIPOLOUT">      0.00000000      0.00000000      0.00000000</v>
  </separator>
  <dos>
   <i name="efermi">      1.11519997 </i>
   <total>
    <array>
     <dimension dim="1">gridpoints</dimension>
     <dimension dim="2">spin</dimension>
     <field>energy</field>
     <field>total</field>
     <field>integrated</field>
     <set>
      <set comment="spin 1">
       <r>   -20.3724     0.0000     0.0000 </r>
       <r>   -20.2553     0.0000     0.0000 </r>
       <r>   -20.1382     0.0000     0.0000 </r>
       <r>   -20.0211     0.0000     0.0000 </r>
       <r>   -19.9040     0.0000     0.0000 </r>
       <r>   -19.7869     0.0000     0.0000 </r>
       <r>   -19.6698     0.0000     0.0000 </r>
       <r>   -19.5527     0.0000     0.0000 </r>
       <r>   -19.4356     0.0000     0.0000 </r>
       <r>   -19.3185     0.0000     0.0000 </r>
       <r>   -19.2014     0.0000     0.0000 </r>
       <r>   -19.0843     0.0000     0.0000 </r>
       <r>   -18.9672     0.0000     0.0000 </r>
       <r>   -18.8501     0.0000     0.0000 </r>
       <r>   -18.7330     0.0000     0.0000 </r>
       <r>   -18.6159     0.0000     0.0000 </r>
       <r>   -18.4988     0.0000     0.0000 </r>
       <r>   -18.3817     0.0000     0.0000 </r>
       <r>   -18.2647     1.1347     0.0505 </r>
       <r>   -18.1476     1.8489     0.2186 </r>
       <r>   -18.0305     3.5019     0.5048 </r>
       <r>   -17.9134     5.1730     1.0112 </r>
       <r>   -17.7963     4.1070     1.9107 </r>
       <r>   -17.6792     1.5049     2.0253 </r>
       <r>   -17.5621     1.7833     2.1821 </r>
       <r>   -17.4450     4.5250     2.5073 </r>
       <r>   -17.3279     4.4590     3.4997 </r>
       <r>   -17.2108     1.5468     3.8021 </r>
       <r>   -17.0937     0.7112     3.9260 </r>
       <r>   -16.9766     0.8310     3.9993 </r>
       <r>   -16.8595     5.4054     4.2826 </r>
       <r>   -16.7424     4.5554     5.2482 </r>
       <r>   -16.6253     2.1793     5.6010 </r>
       <r>   -16.5082     1.3342     5.7983 </r>
       <r>   -16.3911     0.8017     5.9243 </r>
       <r>   -16.2740     5.6845     6.0018 </r>
       <r>   -16.1569    26.1433    11.6914 </r>
       <r>   -16.0398     0.0000    12.0000 </r>
       <r>   -15.9227     0.0000    12.0000 </r>
       <r>   -15.8056     0.0000    12.0000 </r>
       <r>   -15.6885     0.0000    12.0000 </r>
       <r>   -15.5714     0.0000    12.0000 </r>
       <r>   -15.4543     0.0000    12.0000 </r>
       <r>   -15.3372     0.0000    12.0000 </r>
       <r>   -15.2201     0.0000    12.0000 </r>
       <r>   -15.1030     0.0000    12.0000 </r>
       <r>   -14.9859     0.0000    12.0000 </r>
       <r>   -14.8688     0.0000    12.0000 </r>
       <r>   -14.7517     0.0000    12.0000 </r>
       <r>   -14.6346     0.0000    12.0000 </r>
       <r>   -14.5175     0.0000    12.0000 </r>
       <r>   -14.4004     0.0000    12.0000 </r>
       <r>   -14.2833     0.0000    12.0000 </r>
       <r>   -14.1662     0.0000    12.0000 </r>
       <r>   -14.0491     0.0000    12.0000 </r>
       <r>   -13.9320     0.0000    12.0000 </r>
       <r>   -13.8149     0.0000    12.0000 </r>
       <r>   -13.6978     0.0000    12.0000 </r>
       <r>   -13.5807     0.0000    12.0000 </r>
       <r>   -13.4636     0.0000    12.0000 </r>
       <r>   -13.3465     0.0000    12.0000 </r>
       <r>   -13.2294     0.0000    12.0000 </r>
       <r>   -13.1123     0.0000    12.0000 </r>
       <r>   -12.9952     0.0000    12.0000 </r>
       <r>   -12.8781     0.0000    12.0000 </r>
       <r>   -12.7610     0.0000    12.0000 </r>
       <r>   -12.6439     0.0000    12.0000 </r>
       <r>   -12.5268     0.0000    12.0000 </r>
       <r>   -12.4097     0.0000    12.0000 </r>
       <r>   -12.2926     0.0000    12.0000 </r>
       <r>   -12.1755     0.0000    12.0000 </r>
       <r>   -12.0584     0.0000    12.0000 </r>
       <r>   -11.9413     0.0000    12.0000 </r>
       <r>   -11.8242     0.0000    12.0000 </r>
       <r>   -11.7071     0.0000    12.0000 </r>
       <r>   -11.5900     0.0000    12.0000 </r>
       <r>   -11.4729     0.0000    12.0000 </r>
       <r>   -11.3558     0.0000    12.0000 </r>
       <r>   -11.2387     0.0000    12.0000 </r>
       <r>   -11.1216     0.0000    12.0000 </r>
       <r>   -11.0045     0.0000    12.0000 </r>
       <r>   -10.8874     0.0000    12.0000 </r>
       <r>   -10.7703     0.0000    12.0000 </r>
       <r>   -10.6532     0.0000    12.0000 </r>
       <r>   -10.5361     0.0000    12.0000 </r>
       <r>   -10.4190     0.0000    12.0000 </r>
       <r>   -10.3019     0.0000    12.0000 </r>
       <r>   -10.1848     0.0000    12.0000 </r>
       <r>   -10.0677     0.0000    12.0000 </r>
       <r>    -9.9506     0.0000    12.0000 </r>
       <r>    -9.8335     0.0000    12.0000 </r>
       <r>    -9.7164     0.0000    12.0000 </r>
       <r>    -9.5993     0.0000    12.0000 </r>
       <r>    -9.4822     0.0000    12.0000 </r>
       <r>    -9.3651     0.0000    12.0000 </r>
       <r>    -9.2480     0.0000    12.0000 </r>
       <r>    -9.1309     0.0000    12.0000 </r>
       <r>    -9.0138     0.0000    12.0000 </r>
       <r>    -8.8967     0.0000    12.0000 </r>
       <r>    -8.7796     0.0000    12.0000 </r>
       <r>    -8.6625     0.0000    12.0000 </r>
       <r>    -8.5455     0.0000    12.0000 </r>
       <r>    -8.4284     0.0000    12.0000 </r>
       <r>    -8.3113     0.0000    12.0000 </r>
       <r>    -8.1942     0.0665    12.0012 </r>
       <r>    -8.0771     0.3685    12.0253 </r>
       <r>    -7.9600     0.4976    12.0770 </r>
       <r>    -7.8429     0.7159    12.1477 </r>
       <r>    -7.7258     0.9097    12.2436 </r>
       <r>    -7.6087     1.2914    12.3708 </r>
       <r>    -7.4916     1.8089    12.5499 </r>
       <r>    -7.3745     3.8375    12.8462 </r>
       <r>    -7.2574     3.7726    13.6448 </r>
       <r>    -7.1403     0.7923    13.9123 </r>
       <r>    -7.0232     0.4117    13.9805 </r>
       <r>    -6.9061     0.2266    14.0163 </r>
       <r>    -6.7890     0.2931    14.0441 </r>
       <r>    -6.6719     0.4468    14.0872 </r>
       <r>    -6.5548     0.7210    14.1534 </r>
       <r>    -6.4377     1.2269    14.2651 </r>
       <r>    -6.3206     2.1799    14.4543 </r>
       <r>    -6.2035     6.0254    14.9534 </r>
       <r>    -6.0864     2.6440    15.4533 </r>
       <r>    -5.9693     1.4554    15.6863 </r>
       <r>    -5.8522     0.9305    15.8216 </r>
       <r>    -5.7351     0.6239    15.9119 </r>
       <r>    -5.6180     0.5827    15.9758 </r>
       <r>    -5.5009     0.1324    16.0049 </r>
       <r>    -5.3838     2.0546    16.1258 </r>
       <r>    -5.2667     3.6230    16.4760 </r>
       <r>    -5.1496     2.8947    16.8407 </r>
       <r>    -5.0325     2.8092    17.1797 </r>
       <r>    -4.9154     2.0234    17.4656 </r>
       <r>    -4.7983     1.4301    17.6630 </r>
       <r>    -4.6812     1.0449    17.8065 </r>
       <r>    -4.5641     0.6989    17.9083 </r>
       <r>    -4.4470     1.7444    18.0190 </r>
       <r>    -4.3299    19.0816    19.1533 </r>
       <r>    -4.2128     8.1710    20.4358 </r>
       <r>    -4.0957     6.8615    21.1744 </r>
       <r>    -3.9786     4.3460    21.8534 </r>
       <r>    -3.8615     7.0275    22.3990 </r>
       <r>    -3.7444     6.1763    23.3029 </r>
       <r>    -3.6273     2.7560    23.8182 </r>
       <r>    -3.5102     0.2324    23.9964 </r>
       <r>    -3.3931     0.0000    24.0000 </r>
       <r>    -3.2760     0.0000    24.0000 </r>
       <r>    -3.1589     0.0000    24.0000 </r>
       <r>    -3.0418     0.0000    24.0000 </r>
       <r>    -2.9247     0.0000    24.0000 </r>
       <r>    -2.8076     0.0000    24.0000 </r>
       <r>    -2.6905     0.0000    24.0000 </r>
       <r>    -2.5734     0.0000    24.0000 </r>
       <r>    -2.4563     0.0000    24.0000 </r>
       <r>    -2.3392     0.0000    24.0000 </r>
       <r>    -2.2221     0.0000    24.0000 </r>
       <r>    -2.1050    11.6890    24.4774 </r>
       <r>    -1.9879     6.3816    25.8392 </r>
       <r>    -1.8708     5.3204    26.5044 </r>
       <r>    -1.7537     6.7509    27.3740 </r>
       <r>    -1.6366     4.7382    28.1185 </r>
       <r>    -1.5195    11.5102    29.0312 </r>
       <r>    -1.4024     4.5248    29.8307 </r>
       <r>    -1.2853     1.7720    30.0607 </r>
       <r>    -1.1682    13.1071    31.1217 </r>
       <r>    -1.0511     2.3972    31.8849 </r>
       <r>    -0.9340    20.7409    32.8420 </r>
       <r>    -0.8169     1.5186    33.8926 </r>
       <r>    -0.6998     6.8945    34.2319 </r>
       <r>    -0.5827     7.0420    34.9757 </r>
       <r>    -0.4656    11.2927    36.1714 </r>
       <r>    -0.3485     5.8328    37.3678 </r>
       <r>    -0.2314     4.7100    37.9414 </r>
       <r>    -0.1143    11.4347    39.0135 </r>
       <r>     0.0028     5.1092    40.0363 </r>
       <r>     0.1199    14.6716    41.0166 </r>
       <r>     0.2370     0.1124    42.0004 </r>
       <r>     0.3541    12.8524    42.6332 </r>
       <r>     0.4712     3.5469    43.6889 </r>
       <r>     0.5883     4.3962    44.2102 </r>
       <r>     0.7054     7.3740    44.8784 </r>
       <r>     0.8225     8.2133    45.9843 </r>
       <r>     0.9396     8.0527    46.7288 </r>
       <r>     1.0567     4.1381    47.9547 </r>
       <r>     1.1737     0.0000    48.0000 </r>
       <r>     1.2908     0.0000    48.0000 </r>
       <r>     1.4079     0.0000    48.0000 </r>
       <r>     1.5250     0.0000    48.0000 </r>
       <r>     1.6421     0.0000    48.0000 </r>
       <r>     1.7592     0.0000    48.0000 </r>
       <r>     1.8763     0.0000    48.0000 </r>
       <r>     1.9934     0.0000    48.0000 </r>
       <r>     2.1105     0.0000    48.0000 </r>
       <r>     2.2276     0.0000    48.0000 </r>
       <r>     2.3447     0.0000    48.0000 </r>
       <r>     2.4618     0.0000    48.0000 </r>
       <r>     2.5789     0.0000    48.0000 </r>
       <r>     2.6960     0.0000    48.0000 </r>
       <r>     2.8131     0.0000    48.0000 </r>
       <r>     2.9302     0.0000    48.0000 </r>
       <r>     3.0473     0.0000    48.0000 </r>
       <r>     3.1644     0.0000    48.0000 </r>
       <r>     3.2815     0.0000    48.0000 </r>
       <r>     3.3986     0.0000    48.0000 </r>
       <r>     3.5157     0.0000    48.0000 </r>
       <r>     3.6328     0.0000    48.0000 </r>
       <r>     3.7499     0.0000    48.0000 </r>
       <r>     3.8670     0.0000    48.0000 </r>
       <r>     3.9841     0.0000    48.0000 </r>
       <r>     4.1012     0.0000    48.0000 </r>
       <r>     4.2183     0.0000    48.0000 </r>
       <r>     4.3354     0.0000    48.0000 </r>
       <r>     4.4525     0.0000    48.0000 </r>
       <r>     4.5696     0.0000    48.0000 </r>
       <r>     4.6867     0.0000    48.0000 </r>
       <r>     4.8038     0.0000    48.0000 </r>
       <r>     4.9209     0.0000    48.0000 </r>
       <r>     5.0380     0.0000    48.0000 </r>
       <r>     5.1551     0.0000    48.0000 </r>
       <r>     5.2722     0.0000    48.0000 </r>
       <r>     5.3893     0.0000    48.0000 </r>
       <r>     5.5064     0.0000    48.0000 </r>
       <r>     5.6235     0.0000    48.0000 </r>
       <r>     5.7406     0.0000    48.0000 </r>
       <r>     5.8577     0.0000    48.0000 </r>
       <r>     5.9748     0.0000    48.0000 </r>
       <r>     6.0919     0.0000    48.0000 </r>
       <r>     6.2090     0.0000    48.0000 </r>
       <r>     6.3261     0.0000    48.0000 </r>
       <r>     6.4432     0.0000    48.0000 </r>
       <r>     6.5603     0.0000    48.0000 </r>
       <r>     6.6774     0.0000    48.0000 </r>
       <r>     6.7945     0.0000    48.0000 </r>
       <r>     6.9116     0.0000    48.0000 </r>
       <r>     7.0287     0.0000    48.0000 </r>
       <r>     7.1458     0.0007    48.0000 </r>
       <r>     7.2629     0.0206    48.0010 </r>
       <r>     7.3800     0.0681    48.0059 </r>
       <r>     7.4971     0.1431    48.0180 </r>
       <r>     7.6142     0.2216    48.0401 </r>
       <r>     7.7313     0.2632    48.0686 </r>
       <r>     7.8484     0.2863    48.1010 </r>
       <r>     7.9655     0.3211    48.1361 </r>
       <r>     8.0826     0.3690    48.1765 </r>
       <r>     8.1997     0.4195    48.2226 </r>
       <r>     8.3168     0.4726    48.2749 </r>
       <r>     8.4339     0.5280    48.3334 </r>
       <r>     8.5510     0.6349    48.4000 </r>
       <r>     8.6681     0.7914    48.4835 </r>
       <r>     8.7852     0.8055    48.5818 </r>
       <r>     8.9023     0.8670    48.6797 </r>
       <r>     9.0194     0.9305    48.7849 </r>
       <r>     9.1365     0.9960    48.8977 </r>
       <r>     9.2536     1.0633    49.0182 </r>
       <r>     9.3707     1.5265    49.1746 </r>
       <r>     9.4878     1.3826    49.3499 </r>
       <r>     9.6049     1.2454    49.5008 </r>
       <r>     9.7220     1.3956    49.6513 </r>
       <r>     9.8391     1.4821    49.8249 </r>
       <r>     9.9562     1.7782    50.0398 </r>
       <r>    10.0733     1.0971    50.1932 </r>
       <r>    10.1904     2.0215    50.3506 </r>
       <r>    10.3075     6.2187    50.7759 </r>
       <r>    10.4246     5.8406    51.8835 </r>
       <r>    10.5417     4.4335    52.3761 </r>
       <r>    10.6588     8.5061    53.1555 </r>
       <r>    10.7759     6.1393    54.0353 </r>
       <r>    10.8929     2.4069    54.4875 </r>
       <r>    11.0100     4.3941    54.8504 </r>
       <r>    11.1271     7.7280    55.6247 </r>
       <r>    11.2442     5.4931    56.1645 </r>
       <r>    11.3613     6.7224    56.8835 </r>
       <r>    11.4784     6.0884    57.7360 </r>
       <r>    11.5955     1.3596    58.0856 </r>
       <r>    11.7126    16.2675    59.0105 </r>
       <r>    11.8297     1.8748    59.6699 </r>
       <r>    11.9468     0.8318    59.8124 </r>
       <r>    12.0639     0.5380    59.8898 </r>
       <r>    12.1810     0.3530    59.9417 </r>
       <r>    12.2981     0.1923    59.9734 </r>
       <r>    12.4152     0.0949    59.9892 </r>
       <r>    12.5323     0.0411    59.9969 </r>
       <r>    12.6494     0.0094    59.9997 </r>
       <r>    12.7665     0.0000    60.0000 </r>
       <r>    12.8836     0.0000    60.0000 </r>
       <r>    13.0007     0.0000    60.0000 </r>
       <r>    13.1178     0.0000    60.0000 </r>
       <r>    13.2349     0.0000    60.0000 </r>
       <r>    13.3520     0.0000    60.0000 </r>
       <r>    13.4691     0.0000    60.0000 </r>
       <r>    13.5862     0.0000    60.0000 </r>
       <r>    13.7033     0.0000    60.0000 </r>
       <r>    13.8204     0.0000    60.0000 </r>
       <r>    13.9375     0.0000    60.0000 </r>
       <r>    14.0546     0.0000    60.0000 </r>
       <r>    14.1717     0.0000    60.0000 </r>
       <r>    14.2888     0.0000    60.0000 </r>
       <r>    14.4059     0.0000    60.0000 </r>
       <r>    14.5230     0.0000    60.0000 </r>
       <r>    14.6401     0.0000    60.0000 </r>
       <r>    14.7572     0.0000    60.0000 </r>
      </set>
     </set>
    </array>
   </total>
  </dos>
 </calculation>
 <structure name="finalpos" >
  <crystal>
   <varray name="basis" >
    <v>       4.91380000       0.00000000       0.00000000 </v>
    <v>      -2.45690000       4.25547563       0.00000000 </v>
    <v>       0.00000000       0.00000000       5.40520000 </v>
   </varray>
   <i name="volume">    113.02573808 </i>
   <varray name="rec_basis" >
    <v>       0.20350849       0.11749568       0.00000000 </v>
    <v>       0.00000000       0.23499136       0.00000000 </v>
    <v>       0.00000000       0.00000000       0.18500703 </v>
   </varray>
  </crystal>
  <varray name="positions" >
   <v>       0.46980000       0.00000000       0.66666667 </v>
   <v>       0.53020000       0.53020000       0.00000000 </v>
   <v>       0.00000000       0.46980000       0.33333333 </v>
   <v>       0.41450000       0.26620000       0.78560000 </v>
   <v>       0.58550000       0.85170000       0.88106667 </v>
   <v>       0.14830000       0.73380000       0.54773333 </v>
   <v>       0.26620000       0.41450000       0.21440000 </v>
   <v>       0.85170000       0.58550000       0.11893333 </v>
   <v>       0.73380000       0.14830000       0.45226667 </v>
  </varray>
 </structure>
</modeling>
