unknown system                          
   1.00000000000000     
     2.573869    0.000000    0.000000
     1.286934    2.229036    0.000000
     0.000000    0.000000   18.304665
   Cu
     4
Direct
  0.000000  0.000000  0.327785
  0.333333  0.333333  0.442595
  0.666667  0.666667  0.557405
  0.000000  0.000000  0.672215
 
   20   20  144
 -.50111E-01 -.46289E-01 -.36139E-01 -.22963E-01 -.10548E-01 -.17246E-02 0.23852E-02 0.23555E-02 -.57342E-04 -.26862E-02
 -.37848E-02 -.26862E-02 -.57342E-04 0.23555E-02 0.23852E-02 -.17246E-02 -.10548E-01 -.22963E-01 -.36139E-01 -.46289E-01
 -.46289E-01 -.39259E-01 -.27124E-01 -.14383E-01 -.47519E-02 0.29088E-03 0.86514E-03 -.17766E-02 -.51469E-02 -.66473E-02
 -.54732E-02 -.27630E-02 -.50388E-04 0.13814E-02 -.64182E-04 -.58639E-02 -.15842E-01 -.27826E-01 -.38830E-01 -.45859E-01
 -.36139E-01 -.27124E-01 -.15839E-01 -.69383E-02 -.23448E-02 -.18993E-02 -.50742E-02 -.10242E-01 -.14185E-01 -.14603E-01
 -.12119E-01 -.85552E-02 -.48410E-02 -.20602E-02 -.25789E-02 -.79957E-02 -.17041E-01 -.26854E-01 -.34939E-01 -.38830E-01
 -.22963E-01 -.14383E-01 -.69383E-02 -.34831E-02 -.38454E-02 -.77985E-02 -.15269E-01 -.23601E-01 -.28419E-01 -.27917E-01
 -.23583E-01 -.16989E-01 -.91929E-02 -.30583E-02 -.22386E-02 -.71288E-02 -.14601E-01 -.21720E-01 -.26854E-01 -.27826E-01
 -.10548E-01 -.47519E-02 -.23448E-02 -.38454E-02 -.88171E-02 -.18276E-01 -.31315E-01 -.42529E-01 -.46503E-01 -.42707E-01
 -.33619E-01 -.21315E-01 -.88130E-02 -.11117E-02 -.90983E-03 -.54815E-02 -.10551E-01 -.14601E-01 -.17041E-01 -.15842E-01
 -.17246E-02 0.29088E-03 -.18993E-02 -.77985E-02 -.18276E-01 -.34289E-01 -.51485E-01 -.61700E-01 -.60818E-01 -.51078E-01
 -.36205E-01 -.19430E-01 -.57263E-02 0.18616E-03 -.84254E-03 -.36439E-02 -.54815E-02 -.71288E-02 -.79957E-02 -.58639E-02
 0.23852E-02 0.86514E-03 -.50742E-02 -.15269E-01 -.31315E-01 -.51485E-01 -.67586E-01 -.71923E-01 -.64476E-01 -.49949E-01
 -.32115E-01 -.14806E-01 -.34143E-02 -.78904E-04 -.70770E-03 -.84254E-03 -.90983E-03 -.22386E-02 -.25789E-02 -.64182E-04
 0.23555E-02 -.17766E-02 -.10242E-01 -.23601E-01 -.42529E-01 -.61700E-01 -.71923E-01 -.69520E-01 -.58252E-01 -.42495E-01
 -.24793E-01 -.95257E-02 -.15271E-02 -.52697E-04 -.78904E-04 0.18616E-03 -.11117E-02 -.30583E-02 -.20602E-02 0.13814E-02
 -.57342E-04 -.51469E-02 -.14185E-01 -.28419E-01 -.46503E-01 -.60818E-01 -.64476E-01 -.58252E-01 -.46512E-01 -.31305E-01
 -.15046E-01 -.34715E-02 -.61327E-04 -.15271E-02 -.34143E-02 -.57263E-02 -.88130E-02 -.91929E-02 -.48410E-02 -.50388E-04
 -.26862E-02 -.66473E-02 -.14603E-01 -.27917E-01 -.42707E-01 -.51078E-01 -.49949E-01 -.42495E-01 -.31305E-01 -.17252E-01
 -.47303E-02 -.31487E-04 -.34715E-02 -.95257E-02 -.14806E-01 -.19430E-01 -.21315E-01 -.16989E-01 -.85552E-02 -.27630E-02
 -.37848E-02 -.54732E-02 -.12119E-01 -.23583E-01 -.33619E-01 -.36205E-01 -.32115E-01 -.24793E-01 -.15046E-01 -.47303E-02
 0.13481E-04 -.47303E-02 -.15046E-01 -.24793E-01 -.32115E-01 -.36205E-01 -.33619E-01 -.23583E-01 -.12119E-01 -.54732E-02
 -.26862E-02 -.27630E-02 -.85552E-02 -.16989E-01 -.21315E-01 -.19430E-01 -.14806E-01 -.95257E-02 -.34715E-02 -.31487E-04
 -.47303E-02 -.17252E-01 -.31305E-01 -.42495E-01 -.49949E-01 -.51078E-01 -.42707E-01 -.27917E-01 -.14603E-01 -.66473E-02
 -.57342E-04 -.50388E-04 -.48410E-02 -.91929E-02 -.88130E-02 -.57263E-02 -.34143E-02 -.15271E-02 -.61327E-04 -.34715E-02
 -.15046E-01 -.31305E-01 -.46512E-01 -.58252E-01 -.64476E-01 -.60818E-01 -.46503E-01 -.28419E-01 -.14185E-01 -.51469E-02
 0.23555E-02 0.13814E-02 -.20602E-02 -.30583E-02 -.11117E-02 0.18616E-03 -.78904E-04 -.52697E-04 -.15271E-02 -.95257E-02
 -.24793E-01 -.42495E-01 -.58252E-01 -.69520E-01 -.71923E-01 -.61700E-01 -.42529E-01 -.23601E-01 -.10242E-01 -.17766E-02
 0.23852E-02 -.64182E-04 -.25789E-02 -.22386E-02 -.90983E-03 -.84254E-03 -.70770E-03 -.78904E-04 -.34143E-02 -.14806E-01
 -.32115E-01 -.49949E-01 -.64476E-01 -.71923E-01 -.67586E-01 -.51485E-01 -.31315E-01 -.15269E-01 -.50742E-02 0.86514E-03
 -.17246E-02 -.58639E-02 -.79957E-02 -.71288E-02 -.54815E-02 -.36439E-02 -.84254E-03 0.18616E-03 -.57263E-02 -.19430E-01
 -.36205E-01 -.51078E-01 -.60818E-01 -.61700E-01 -.51485E-01 -.34289E-01 -.18276E-01 -.77985E-02 -.18993E-02 0.29088E-03
 -.10548E-01 -.15842E-01 -.17041E-01 -.14601E-01 -.10551E-01 -.54815E-02 -.90983E-03 -.11117E-02 -.88130E-02 -.21315E-01
 -.33619E-01 -.42707E-01 -.46503E-01 -.42529E-01 -.31315E-01 -.18276E-01 -.88171E-02 -.38454E-02 -.23448E-02 -.47519E-02
 -.22963E-01 -.27826E-01 -.26854E-01 -.21720E-01 -.14601E-01 -.71288E-02 -.22386E-02 -.30583E-02 -.91929E-02 -.16989E-01
 -.23583E-01 -.27917E-01 -.28419E-01 -.23601E-01 -.15269E-01 -.77985E-02 -.38454E-02 -.34831E-02 -.69383E-02 -.14383E-01
 -.36139E-01 -.38830E-01 -.34939E-01 -.26854E-01 -.17041E-01 -.79957E-02 -.25789E-02 -.20602E-02 -.48410E-02 -.85552E-02
 -.12119E-01 -.14603E-01 -.14185E-01 -.10242E-01 -.50742E-02 -.18993E-02 -.23448E-02 -.69383E-02 -.15839E-01 -.27124E-01
 -.46289E-01 -.45859E-01 -.38830E-01 -.27826E-01 -.15842E-01 -.58639E-02 -.64182E-04 0.13814E-02 -.50388E-04 -.27630E-02
 -.54732E-02 -.66473E-02 -.51469E-02 -.17766E-02 0.86514E-03 0.29088E-03 -.47519E-02 -.14383E-01 -.27124E-01 -.39259E-01
 0.17414E-03 0.70800E-03 0.17287E-03 -.28483E-03 0.51016E-03 0.16818E-02 0.18400E-02 0.12124E-02 0.65856E-03 0.71647E-04
 -.65373E-03 -.58850E-03 0.65906E-03 0.17585E-02 0.15688E-02 0.81920E-03 0.51159E-03 0.25057E-03 -.39598E-03 -.58332E-03
 0.70800E-03 0.53385E-03 0.35718E-03 0.79751E-03 0.15014E-02 0.14075E-02 0.28254E-03 -.94529E-03 -.14515E-02 -.12226E-02
 -.50042E-03 0.50722E-03 0.12649E-02 0.11932E-02 0.49743E-03 -.30752E-04 -.77867E-04 0.44907E-04 0.19715E-03 0.49331E-03
 0.17287E-03 0.35718E-03 0.89660E-03 0.10449E-02 0.50685E-03 -.45653E-03 -.14337E-02 -.19587E-02 -.16635E-02 -.79286E-03
 -.16439E-03 -.21379E-03 -.49680E-03 -.45982E-03 -.16039E-03 0.15226E-03 0.54784E-03 0.10060E-02 0.10893E-02 0.61613E-03
 -.28483E-03 0.79751E-03 0.10449E-02 0.46820E-04 -.86082E-03 -.11084E-02 -.14724E-02 -.20934E-02 -.22305E-02 -.20566E-02
 -.24343E-02 -.28886E-02 -.20733E-02 -.25259E-03 0.92536E-03 0.10577E-02 0.11299E-02 0.12259E-02 0.53643E-03 -.44785E-03
 0.51016E-03 0.15014E-02 0.50685E-03 -.86082E-03 -.84640E-03 -.81873E-03 -.24646E-02 -.45052E-02 -.51231E-02 -.49583E-02
 -.49040E-02 -.37417E-02 -.84333E-03 0.15334E-02 0.15205E-02 0.57281E-03 0.50918E-03 0.48171E-03 -.45499E-03 -.79430E-03
 0.16818E-02 0.14075E-02 -.45653E-03 -.11084E-02 -.81873E-03 -.26193E-02 -.62771E-02 -.81503E-02 -.72129E-02 -.58469E-02
 -.46650E-02 -.20659E-02 0.10283E-02 0.15962E-02 -.70887E-04 -.67238E-03 0.32854E-03 0.47100E-03 -.35970E-03 0.16630E-03
 0.18400E-02 0.28254E-03 -.14337E-02 -.14724E-02 -.24646E-02 -.62771E-02 -.94314E-02 -.85702E-02 -.59151E-02 -.46420E-02
 -.35369E-02 -.94345E-03 0.78642E-03 -.28934E-03 -.13929E-02 0.71295E-04 0.17563E-02 0.10828E-02 0.99862E-04 0.10659E-02
 0.12124E-02 -.94529E-03 -.19587E-02 -.20934E-02 -.45052E-02 -.81503E-02 -.85702E-02 -.58145E-02 -.42792E-02 -.46955E-02
 -.36417E-02 -.94827E-03 -.58352E-04 -.92122E-03 0.95601E-05 0.25235E-02 0.27502E-02 0.64167E-03 0.85078E-04 0.14470E-02
 0.65856E-03 -.14515E-02 -.16635E-02 -.22305E-02 -.51231E-02 -.72129E-02 -.59151E-02 -.42792E-02 -.51301E-02 -.55893E-02
 -.28114E-02 0.31746E-03 0.65653E-03 0.50842E-03 0.23961E-02 0.36492E-02 0.17692E-02 -.19029E-03 0.81748E-03 0.21332E-02
 0.71647E-04 -.12226E-02 -.79286E-03 -.20566E-02 -.49583E-02 -.58469E-02 -.46420E-02 -.46955E-02 -.55893E-02 -.36230E-02
 0.55742E-03 0.23971E-02 0.14907E-02 0.17023E-02 0.33692E-02 0.30413E-02 0.94509E-03 0.94580E-03 0.29103E-02 0.27199E-02
 -.65373E-03 -.50042E-03 -.16439E-03 -.24343E-02 -.49040E-02 -.46650E-02 -.35369E-02 -.36417E-02 -.28114E-02 0.55742E-03
 0.31471E-02 0.23076E-02 0.10245E-02 0.23521E-02 0.39659E-02 0.32084E-02 0.23287E-02 0.35729E-02 0.42415E-02 0.18803E-02
 -.58850E-03 0.50722E-03 -.21379E-03 -.28886E-02 -.37417E-02 -.20659E-02 -.94345E-03 -.94827E-03 0.31746E-03 0.23971E-02
 0.23076E-02 0.75789E-03 0.14962E-02 0.43876E-02 0.55893E-02 0.45358E-02 0.42262E-02 0.47445E-02 0.32313E-02 0.25328E-03
 0.65906E-03 0.12649E-02 -.49680E-03 -.20733E-02 -.84333E-03 0.10283E-02 0.78642E-03 -.58352E-04 0.65653E-03 0.14907E-02
 0.10245E-02 0.14962E-02 0.44819E-02 0.70587E-02 0.65188E-02 0.48486E-02 0.44837E-02 0.39098E-02 0.16036E-02 -.91182E-04
 0.17585E-02 0.11932E-02 -.45982E-03 -.25259E-03 0.15334E-02 0.15962E-02 -.28934E-03 -.92122E-03 0.50842E-03 0.17023E-02
 0.23521E-02 0.43876E-02 0.70587E-02 0.73047E-02 0.52481E-02 0.40265E-02 0.41282E-02 0.31895E-02 0.12786E-02 0.89066E-03
 0.15688E-02 0.49743E-03 -.16039E-03 0.92536E-03 0.15205E-02 -.70887E-04 -.13929E-02 0.95601E-05 0.23961E-02 0.33692E-02
 0.39659E-02 0.55893E-02 0.65188E-02 0.52481E-02 0.38206E-02 0.41607E-02 0.44969E-02 0.29677E-02 0.12893E-02 0.13272E-02
 0.81920E-03 -.30752E-04 0.15226E-03 0.10577E-02 0.57281E-03 -.67238E-03 0.71295E-04 0.25235E-02 0.36492E-02 0.30413E-02
 0.32084E-02 0.45358E-02 0.48486E-02 0.40265E-02 0.41607E-02 0.50031E-02 0.41012E-02 0.16363E-02 0.40657E-03 0.86924E-03
 0.51159E-03 -.77867E-04 0.54784E-03 0.11299E-02 0.50918E-03 0.32854E-03 0.17563E-02 0.27502E-02 0.17692E-02 0.94509E-03
 0.23287E-02 0.42262E-02 0.44837E-02 0.41282E-02 0.44969E-02 0.41012E-02 0.17641E-02 -.32399E-03 -.98758E-04 0.86136E-03
 0.25057E-03 0.44907E-04 0.10060E-02 0.12259E-02 0.48171E-03 0.47100E-03 0.10828E-02 0.64167E-03 -.19029E-03 0.94580E-03
 0.35729E-02 0.47445E-02 0.39098E-02 0.31895E-02 0.29677E-02 0.16363E-02 -.32399E-03 -.53138E-03 0.86084E-03 0.12498E-02
 -.39598E-03 0.19715E-03 0.10893E-02 0.53643E-03 -.45499E-03 -.35970E-03 0.99862E-04 0.85078E-04 0.81748E-03 0.29103E-02
 0.42415E-02 0.32313E-02 0.16036E-02 0.12786E-02 0.12893E-02 0.40657E-03 -.98758E-04 0.86084E-03 0.15984E-02 0.64304E-03
 -.58332E-03 0.49331E-03 0.61613E-03 -.44785E-03 -.79430E-03 0.16630E-03 0.10659E-02 0.14470E-02 0.21332E-02 0.27199E-02
 0.18803E-02 0.25328E-03 -.91182E-04 0.89066E-03 0.13272E-02 0.86924E-03 0.86136E-03 0.12498E-02 0.64304E-03 -.58324E-03
 0.51362E-01 0.48564E-01 0.37223E-01 0.22946E-01 0.11899E-01 0.52152E-02 0.12986E-02 0.53604E-04 0.14145E-02 0.29413E-02
 0.26213E-02 0.16217E-02 0.14147E-02 0.11458E-02 0.76053E-03 0.34950E-02 0.11901E-01 0.24013E-01 0.36087E-01 0.45986E-01
 0.48564E-01 0.41011E-01 0.28239E-01 0.16096E-01 0.77395E-02 0.26490E-02 0.26277E-03 0.10708E-02 0.40273E-02 0.63506E-02
 0.66222E-02 0.55618E-02 0.37637E-02 0.15676E-02 0.11858E-02 0.57863E-02 0.15800E-01 0.28316E-01 0.39914E-01 0.47708E-01
 0.37223E-01 0.28239E-01 0.17653E-01 0.88681E-02 0.34572E-02 0.18881E-02 0.43355E-02 0.97772E-02 0.15328E-01 0.17870E-01
 0.16265E-01 0.11582E-01 0.59727E-02 0.20385E-02 0.23553E-02 0.81393E-02 0.18156E-01 0.29268E-01 0.37858E-01 0.40933E-01
 0.22946E-01 0.16096E-01 0.88681E-02 0.36506E-02 0.31939E-02 0.83842E-02 0.17239E-01 0.26245E-01 0.31929E-01 0.31779E-01
 0.25552E-01 0.16127E-01 0.78443E-02 0.36197E-02 0.41650E-02 0.90885E-02 0.16982E-01 0.24723E-01 0.28771E-01 0.27777E-01
 0.11899E-01 0.77395E-02 0.34572E-02 0.31939E-02 0.10178E-01 0.22434E-01 0.35043E-01 0.44346E-01 0.47893E-01 0.43619E-01
 0.32470E-01 0.19628E-01 0.10179E-01 0.52491E-02 0.40532E-02 0.66161E-02 0.11899E-01 0.16282E-01 0.17008E-01 0.14972E-01
 0.52152E-02 0.26490E-02 0.18881E-02 0.83842E-02 0.22434E-01 0.38403E-01 0.51495E-01 0.59869E-01 0.60856E-01 0.51939E-01
 0.36227E-01 0.21099E-01 0.10589E-01 0.39080E-02 0.82498E-03 0.24244E-02 0.65735E-02 0.87543E-02 0.79620E-02 0.66351E-02
 0.12986E-02 0.26277E-03 0.43355E-02 0.17239E-01 0.35043E-01 0.51495E-01 0.64266E-01 0.71437E-01 0.68179E-01 0.53222E-01
 0.33701E-01 0.17838E-01 0.71149E-02 0.59664E-04 -.20777E-02 0.98829E-03 0.45841E-02 0.46449E-02 0.29457E-02 0.22045E-02
 0.53604E-04 0.10708E-02 0.97772E-02 0.26245E-01 0.44346E-01 0.59869E-01 0.71437E-01 0.74544E-01 0.64163E-01 0.43935E-01
 0.24342E-01 0.11078E-01 0.25902E-02 -.18052E-02 -.40384E-03 0.42014E-02 0.59086E-02 0.36395E-02 0.15716E-02 0.10085E-02
 0.14145E-02 0.40273E-02 0.15328E-01 0.31929E-01 0.47893E-01 0.60856E-01 0.68179E-01 0.64163E-01 0.47897E-01 0.28102E-01
 0.13891E-01 0.58841E-02 0.14146E-02 0.15523E-02 0.65739E-02 0.10991E-01 0.10172E-01 0.67744E-02 0.48346E-02 0.33175E-02
 0.29413E-02 0.63506E-02 0.17870E-01 0.31779E-01 0.43619E-01 0.51939E-01 0.53222E-01 0.43935E-01 0.28102E-01 0.14859E-01
 0.79938E-02 0.49397E-02 0.50746E-02 0.10376E-01 0.18063E-01 0.21487E-01 0.19178E-01 0.15396E-01 0.11817E-01 0.68206E-02
 0.26213E-02 0.66222E-02 0.16265E-01 0.25552E-01 0.32470E-01 0.36227E-01 0.33701E-01 0.24342E-01 0.13891E-01 0.79938E-02
 0.64302E-02 0.77608E-02 0.13889E-01 0.24793E-01 0.34218E-01 0.36369E-01 0.32451E-01 0.26032E-01 0.17401E-01 0.76463E-02
 0.16217E-02 0.55618E-02 0.11582E-01 0.16127E-01 0.19628E-01 0.21099E-01 0.17838E-01 0.11078E-01 0.58841E-02 0.49397E-02
 0.77608E-02 0.15330E-01 0.28903E-01 0.44142E-01 0.52957E-01 0.51978E-01 0.44034E-01 0.32021E-01 0.17634E-01 0.55668E-02
 0.14147E-02 0.37637E-02 0.59727E-02 0.78443E-02 0.10179E-01 0.10589E-01 0.71149E-02 0.25902E-02 0.14146E-02 0.50746E-02
 0.13889E-01 0.28903E-01 0.47878E-01 0.63099E-01 0.67609E-01 0.61233E-01 0.47869E-01 0.30852E-01 0.14190E-01 0.35821E-02
 0.11458E-02 0.15676E-02 0.20385E-02 0.36197E-02 0.52491E-02 0.39080E-02 0.59664E-04 -.18052E-02 0.15523E-02 0.10376E-01
 0.24793E-01 0.44142E-01 0.63099E-01 0.73589E-01 0.71870E-01 0.60469E-01 0.43657E-01 0.25281E-01 0.10238E-01 0.25564E-02
 0.76053E-03 0.11858E-02 0.23553E-02 0.41650E-02 0.40532E-02 0.82498E-03 -.20777E-02 -.40384E-03 0.65739E-02 0.18063E-01
 0.34218E-01 0.52957E-01 0.67609E-01 0.71870E-01 0.65314E-01 0.51635E-01 0.34486E-01 0.17720E-01 0.60087E-02 0.12847E-02
 0.34950E-02 0.57863E-02 0.81393E-02 0.90885E-02 0.66161E-02 0.24244E-02 0.98829E-03 0.42014E-02 0.10991E-01 0.21487E-01
 0.36369E-01 0.51978E-01 0.61233E-01 0.60469E-01 0.51635E-01 0.38049E-01 0.22457E-01 0.90334E-02 0.20513E-02 0.14594E-02
 0.11901E-01 0.15800E-01 0.18156E-01 0.16982E-01 0.11899E-01 0.65735E-02 0.45841E-02 0.59086E-02 0.10172E-01 0.19178E-01
 0.32451E-01 0.44034E-01 0.47869E-01 0.43657E-01 0.34486E-01 0.22457E-01 0.10168E-01 0.24929E-02 0.23129E-02 0.69159E-02
 0.24013E-01 0.28316E-01 0.29268E-01 0.24723E-01 0.16282E-01 0.87543E-02 0.46449E-02 0.36395E-02 0.67744E-02 0.15396E-01
 0.26032E-01 0.32021E-01 0.30852E-01 0.25281E-01 0.17720E-01 0.90334E-02 0.24929E-02 0.26591E-02 0.93445E-02 0.17600E-01
 0.36087E-01 0.39914E-01 0.37858E-01 0.28771E-01 0.17008E-01 0.79620E-02 0.29457E-02 0.15716E-02 0.48346E-02 0.11817E-01
 0.17401E-01 0.17634E-01 0.14190E-01 0.10238E-01 0.60087E-02 0.20513E-02 0.23129E-02 0.93445E-02 0.19912E-01 0.29253E-01
 0.45986E-01 0.47708E-01 0.40933E-01 0.27777E-01 0.14972E-01 0.66351E-02 0.22045E-02 0.10085E-02 0.33175E-02 0.68206E-02
 0.76463E-02 0.55668E-02 0.35821E-02 0.25564E-02 0.12847E-02 0.14594E-02 0.69159E-02 0.17600E-01 0.29253E-01 0.38963E-01
 0.20301E-02 0.37645E-02 0.22608E-02 0.31969E-03 0.11938E-02 0.28130E-02 0.21254E-02 0.63629E-03 0.73472E-03 0.94578E-03
 -.37930E-03 -.10350E-02 0.73429E-03 0.22773E-02 0.13237E-02 0.23606E-03 0.11950E-02 0.19165E-02 0.55578E-03 -.99902E-04
 0.37645E-02 0.30611E-02 0.90657E-03 0.60769E-03 0.21267E-02 0.22032E-02 0.36753E-03 -.40902E-03 0.75537E-03 0.15959E-02
 0.14152E-02 0.18637E-02 0.27684E-02 0.20717E-02 0.19066E-03 -.24784E-03 0.88790E-03 0.13714E-02 0.12041E-02 0.22693E-02
 0.22608E-02 0.90657E-03 0.25928E-03 0.92310E-03 0.13173E-02 0.48823E-03 0.10393E-03 0.17133E-02 0.40141E-02 0.48960E-02
 0.43864E-02 0.35782E-02 0.24428E-02 0.79279E-03 -.22159E-03 0.35531E-03 0.16140E-02 0.23156E-02 0.26155E-02 0.28234E-02
 0.31969E-03 0.60769E-03 0.92310E-03 0.77955E-03 0.74707E-03 0.17554E-02 0.39183E-02 0.62854E-02 0.75744E-02 0.70988E-02
 0.52396E-02 0.31116E-02 0.16386E-02 0.98647E-03 0.92718E-03 0.13521E-02 0.20477E-02 0.23633E-02 0.17939E-02 0.78932E-03
 0.11938E-02 0.21267E-02 0.13173E-02 0.74707E-03 0.26544E-02 0.58562E-02 0.78893E-02 0.85144E-02 0.85421E-02 0.75139E-02
 0.51831E-02 0.31673E-02 0.26530E-02 0.24631E-02 0.15002E-02 0.81339E-03 0.11949E-02 0.12959E-02 0.32725E-03 -.42614E-04
 0.28130E-02 0.22032E-02 0.48823E-03 0.17554E-02 0.58562E-02 0.84682E-02 0.84169E-02 0.86138E-02 0.96510E-02 0.88757E-02
 0.61642E-02 0.44346E-02 0.40284E-02 0.24789E-02 0.40074E-04 -.41250E-03 0.97144E-03 0.12747E-02 0.52457E-03 0.12620E-02
 0.21254E-02 0.36753E-03 0.10393E-03 0.39183E-02 0.78893E-02 0.84169E-02 0.84125E-02 0.10929E-01 0.12718E-01 0.10237E-01
 0.62808E-02 0.45889E-02 0.34399E-02 0.53232E-03 -.13931E-02 0.22424E-03 0.23285E-02 0.17398E-02 0.71156E-03 0.16634E-02
 0.63629E-03 -.40902E-03 0.17133E-02 0.62854E-02 0.85144E-02 0.86138E-02 0.10929E-01 0.14384E-01 0.13329E-01 0.78850E-02
 0.40297E-02 0.33003E-02 0.17350E-02 -.95209E-03 -.69248E-03 0.21389E-02 0.25688E-02 0.13907E-03 -.68270E-03 0.69482E-03
 0.73472E-03 0.75537E-03 0.40141E-02 0.75744E-02 0.85421E-02 0.96510E-02 0.12718E-01 0.13329E-01 0.85548E-02 0.32799E-02
 0.22863E-02 0.26953E-02 0.73316E-03 -.90689E-03 0.74676E-03 0.22085E-02 0.22325E-04 -.23884E-02 -.11566E-02 0.99806E-03
 0.94578E-03 0.15959E-02 0.48960E-02 0.70988E-02 0.75139E-02 0.88757E-02 0.10237E-01 0.78850E-02 0.32799E-02 0.17041E-02
 0.31035E-02 0.26191E-02 -.10076E-03 -.76112E-03 0.71662E-03 0.91732E-04 -.24318E-02 -.21989E-02 0.90898E-03 0.21589E-02
 -.37930E-03 0.14152E-02 0.43864E-02 0.52396E-02 0.51831E-02 0.61642E-02 0.62808E-02 0.40297E-02 0.22863E-02 0.31035E-02
 0.34433E-02 0.87890E-03 -.15673E-02 -.10777E-02 -.20204E-03 -.14362E-02 -.20984E-02 0.18056E-03 0.22383E-02 0.10734E-02
 -.10350E-02 0.18637E-02 0.35782E-02 0.31116E-02 0.31673E-02 0.44346E-02 0.45889E-02 0.33003E-02 0.26953E-02 0.26191E-02
 0.87890E-03 -.17526E-02 -.22233E-02 -.79981E-03 -.53337E-03 -.14373E-02 -.84924E-03 0.77234E-03 0.38542E-03 -.14589E-02
 0.73429E-03 0.27684E-02 0.24428E-02 0.16386E-02 0.26530E-02 0.40284E-02 0.34399E-02 0.17350E-02 0.73316E-03 -.10076E-03
 -.15673E-02 -.22233E-02 -.11092E-02 -.14560E-03 -.86267E-03 -.16664E-02 -.11240E-02 -.73105E-03 -.15443E-02 -.15075E-02
 0.22773E-02 0.20717E-02 0.79279E-03 0.98647E-03 0.24631E-02 0.24789E-02 0.53232E-03 -.95209E-03 -.90689E-03 -.76112E-03
 -.10777E-02 -.79981E-03 -.14560E-03 -.65327E-03 -.20393E-02 -.23797E-02 -.15081E-02 -.93709E-03 -.61618E-03 0.71776E-03
 0.13237E-02 0.19066E-03 -.22159E-03 0.92718E-03 0.15002E-02 0.40074E-04 -.13931E-02 -.69248E-03 0.74676E-03 0.71662E-03
 -.20204E-03 -.53337E-03 -.86267E-03 -.20393E-02 -.27647E-02 -.17555E-02 -.19419E-03 0.43147E-03 0.71774E-03 0.13647E-02
 0.23606E-03 -.24784E-03 0.35531E-03 0.13521E-02 0.81339E-03 -.41250E-03 0.22424E-03 0.21389E-02 0.22085E-02 0.91732E-04
 -.14362E-02 -.14373E-02 -.16664E-02 -.23797E-02 -.17555E-02 0.13238E-03 0.97940E-03 0.30417E-03 -.50567E-04 0.36631E-03
 0.11950E-02 0.88790E-03 0.16140E-02 0.20477E-02 0.11949E-02 0.97144E-03 0.23285E-02 0.25688E-02 0.22325E-04 -.24318E-02
 -.20984E-02 -.84924E-03 -.11240E-02 -.15081E-02 -.19419E-03 0.97940E-03 0.22617E-04 -.11913E-02 -.35943E-03 0.11267E-02
 0.19165E-02 0.13714E-02 0.23156E-02 0.23633E-02 0.12959E-02 0.12747E-02 0.17398E-02 0.13907E-03 -.23884E-02 -.21989E-02
 0.18056E-03 0.77234E-03 -.73105E-03 -.93709E-03 0.43147E-03 0.30417E-03 -.11913E-02 -.61747E-03 0.20718E-02 0.31694E-02
 0.55578E-03 0.12041E-02 0.26155E-02 0.17939E-02 0.32725E-03 0.52457E-03 0.71156E-03 -.68270E-03 -.11566E-02 0.90898E-03
 0.22383E-02 0.38542E-03 -.15443E-02 -.61618E-03 0.71774E-03 -.50567E-04 -.35943E-03 0.20718E-02 0.40862E-02 0.26526E-02
 -.99902E-04 0.22693E-02 0.28234E-02 0.78932E-03 -.42614E-04 0.12620E-02 0.16634E-02 0.69482E-03 0.99806E-03 0.21589E-02
 0.10734E-02 -.14589E-02 -.15075E-02 0.71776E-03 0.13647E-02 0.36631E-03 0.11267E-02 0.31694E-02 0.26526E-02 0.83328E-04
 -.49906E-01 -.43515E-01 -.34839E-01 -.23907E-01 -.10465E-01 0.49769E-04 0.29530E-02 0.12756E-02 -.61759E-04 -.13928E-02
 -.38273E-02 -.40405E-02 -.62035E-04 0.34709E-02 0.18849E-02 -.33928E-02 -.10466E-01 -.21776E-01 -.37118E-01 -.48678E-01
 -.43515E-01 -.37045E-01 -.28010E-01 -.15794E-01 -.38684E-02 0.15127E-02 -.14267E-03 -.32580E-02 -.47080E-02 -.58826E-02
 -.65194E-02 -.40286E-02 0.41089E-03 0.19680E-02 -.10510E-02 -.66672E-02 -.14934E-01 -.27158E-01 -.39672E-01 -.45657E-01
 -.34839E-01 -.28010E-01 -.18008E-01 -.73569E-02 -.11677E-02 -.20494E-02 -.67479E-02 -.10710E-01 -.13054E-01 -.14369E-01
 -.13253E-01 -.87856E-02 -.36992E-02 -.15857E-02 -.31461E-02 -.77653E-02 -.15799E-01 -.26219E-01 -.34766E-01 -.37629E-01
 -.23907E-01 -.15794E-01 -.73569E-02 -.24593E-02 -.31279E-02 -.84460E-02 -.15766E-01 -.22665E-01 -.27366E-01 -.28173E-01
 -.24072E-01 -.16270E-01 -.81362E-02 -.30745E-02 -.26823E-02 -.67215E-02 -.13797E-01 -.21593E-01 -.27211E-01 -.28227E-01
 -.10465E-01 -.38684E-02 -.11677E-02 -.31279E-02 -.87997E-02 -.18307E-01 -.30791E-01 -.41893E-01 -.46536E-01 -.43171E-01
 -.33635E-01 -.20883E-01 -.88050E-02 -.17498E-02 -.13975E-02 -.53727E-02 -.10464E-01 -.15203E-01 -.18086E-01 -.16571E-01
 0.49769E-04 0.15127E-02 -.20494E-02 -.84460E-02 -.18307E-01 -.33958E-01 -.51668E-01 -.62361E-01 -.61269E-01 -.51186E-01
 -.36390E-01 -.19820E-01 -.61043E-02 -.82682E-04 -.98651E-03 -.36111E-02 -.54642E-02 -.73840E-02 -.80919E-02 -.49438E-02
 0.29530E-02 -.14267E-03 -.67479E-02 -.15766E-01 -.30791E-01 -.51668E-01 -.68677E-01 -.72402E-01 -.63963E-01 -.49745E-01
 -.32666E-01 -.15026E-01 -.28524E-02 0.39220E-03 -.70842E-03 -.65994E-03 -.32867E-03 -.16938E-02 -.19290E-02 0.99989E-03
 0.12756E-02 -.32580E-02 -.10710E-01 -.22665E-01 -.41893E-01 -.62361E-01 -.72402E-01 -.68594E-01 -.57222E-01 -.42745E-01
 -.25277E-01 -.88337E-02 -.48793E-03 -.48648E-04 -.52590E-03 0.51560E-03 -.40902E-03 -.30037E-02 -.25023E-02 0.84105E-03
 -.61759E-04 -.47080E-02 -.13054E-01 -.27366E-01 -.46536E-01 -.61269E-01 -.63963E-01 -.57222E-01 -.46523E-01 -.32139E-01
 -.15073E-01 -.26804E-02 -.67567E-04 -.25502E-02 -.39167E-02 -.52819E-02 -.87996E-02 -.10262E-01 -.59802E-02 -.49608E-03
 -.13928E-02 -.58826E-02 -.14369E-01 -.28173E-01 -.43171E-01 -.51186E-01 -.49745E-01 -.42745E-01 -.32139E-01 -.17745E-01
 -.45086E-02 -.42697E-04 -.42916E-02 -.10221E-01 -.14555E-01 -.19021E-01 -.21762E-01 -.17723E-01 -.83198E-02 -.15150E-02
 -.38273E-02 -.65194E-02 -.13253E-01 -.24072E-01 -.33635E-01 -.36390E-01 -.32666E-01 -.25277E-01 -.15073E-01 -.45086E-02
 0.12360E-04 -.49760E-02 -.15071E-01 -.24353E-01 -.31593E-01 -.36056E-01 -.33627E-01 -.23082E-01 -.10971E-01 -.44718E-02
 -.40405E-02 -.40286E-02 -.87856E-02 -.16270E-01 -.20883E-01 -.19820E-01 -.15026E-01 -.88337E-02 -.26804E-02 -.42697E-04
 -.49760E-02 -.16804E-01 -.30520E-01 -.42282E-01 -.50198E-01 -.51027E-01 -.42273E-01 -.27645E-01 -.14832E-01 -.74612E-02
 -.62035E-04 0.41089E-03 -.36992E-02 -.81362E-02 -.88050E-02 -.61043E-02 -.28524E-02 -.48793E-03 -.67567E-04 -.42916E-02
 -.15071E-01 -.30520E-01 -.46507E-01 -.59262E-01 -.65005E-01 -.60428E-01 -.46518E-01 -.29484E-01 -.15330E-01 -.56140E-02
 0.34709E-02 0.19680E-02 -.15857E-02 -.30745E-02 -.17498E-02 -.82682E-04 0.39220E-03 -.48648E-04 -.25502E-02 -.10221E-01
 -.24353E-01 -.42282E-01 -.59262E-01 -.70405E-01 -.71454E-01 -.61094E-01 -.43215E-01 -.24564E-01 -.97908E-02 -.29310E-03
 0.18849E-02 -.10510E-02 -.31461E-02 -.26823E-02 -.13975E-02 -.98651E-03 -.70842E-03 -.52590E-03 -.39167E-02 -.14555E-01
 -.31593E-01 -.50198E-01 -.65005E-01 -.71454E-01 -.66520E-01 -.51328E-01 -.31851E-01 -.14779E-01 -.34018E-02 0.19047E-02
 -.33928E-02 -.66672E-02 -.77653E-02 -.67215E-02 -.53727E-02 -.36111E-02 -.65994E-03 0.51560E-03 -.52819E-02 -.19021E-01
 -.36056E-01 -.51027E-01 -.60428E-01 -.61094E-01 -.51328E-01 -.34602E-01 -.18213E-01 -.71313E-02 -.17197E-02 -.85829E-03
 -.10466E-01 -.14934E-01 -.15799E-01 -.13797E-01 -.10464E-01 -.54642E-02 -.32867E-03 -.40902E-03 -.87996E-02 -.21762E-01
 -.33627E-01 -.42273E-01 -.46518E-01 -.43215E-01 -.31851E-01 -.18213E-01 -.87932E-02 -.45201E-02 -.34424E-02 -.55009E-02
 -.21776E-01 -.27158E-01 -.26219E-01 -.21593E-01 -.15203E-01 -.73840E-02 -.16938E-02 -.30037E-02 -.10262E-01 -.17723E-01
 -.23082E-01 -.27645E-01 -.29484E-01 -.24564E-01 -.14779E-01 -.71313E-02 -.45201E-02 -.44238E-02 -.63737E-02 -.12767E-01
 -.37118E-01 -.39672E-01 -.34766E-01 -.27211E-01 -.18086E-01 -.80919E-02 -.19290E-02 -.25023E-02 -.59802E-02 -.83198E-02
 -.10971E-01 -.14832E-01 -.15330E-01 -.97908E-02 -.34018E-02 -.17197E-02 -.34424E-02 -.63737E-02 -.13458E-01 -.25970E-01
 -.48678E-01 -.45657E-01 -.37629E-01 -.28227E-01 -.16571E-01 -.49438E-02 0.99989E-03 0.84105E-03 -.49608E-03 -.15150E-02
 -.44718E-02 -.74612E-02 -.56140E-02 -.29310E-03 0.19047E-02 -.85829E-03 -.55009E-02 -.12767E-01 -.25970E-01 -.41144E-01
 -.13750E-02 0.18175E-02 0.30732E-04 -.23208E-02 -.55457E-04 0.32244E-02 0.24305E-02 0.19720E-03 0.60841E-03 0.11700E-02
 -.96749E-03 -.21516E-02 0.60908E-03 0.29524E-02 0.10895E-02 -.10970E-02 -.57352E-04 0.35304E-03 -.28289E-02 -.46613E-02
 0.18175E-02 0.12363E-02 -.17551E-02 -.14408E-02 0.19806E-02 0.25220E-02 -.76143E-03 -.25944E-02 -.13978E-02 -.10076E-02
 -.21024E-02 -.11457E-02 0.15751E-02 0.17584E-02 -.60322E-03 -.12486E-02 0.62998E-05 -.51229E-03 -.21742E-02 -.98197E-03
 0.30732E-04 -.17551E-02 -.21587E-02 0.12271E-03 0.14491E-02 -.82715E-03 -.35868E-02 -.33176E-02 -.17948E-02 -.19763E-02
 -.25684E-02 -.13311E-02 0.18106E-03 -.20134E-03 -.97279E-03 -.12537E-03 0.91238E-03 0.42116E-03 -.18230E-03 0.29968E-03
 -.23208E-02 -.14408E-02 0.12271E-03 0.78968E-03 -.48122E-03 -.25085E-02 -.34008E-02 -.32945E-02 -.37706E-02 -.49133E-02
 -.50742E-02 -.36044E-02 -.17657E-02 -.60846E-03 0.19520E-03 0.96282E-03 0.11171E-02 0.27033E-03 -.10445E-02 -.20756E-02
 -.55457E-04 0.19806E-02 0.14491E-02 -.48122E-03 -.16849E-02 -.26167E-02 -.47856E-02 -.75964E-02 -.92263E-02 -.91574E-02
 -.77789E-02 -.50865E-02 -.16915E-02 0.56363E-03 0.80267E-03 0.27740E-03 -.54819E-04 -.94761E-03 -.23890E-02 -.23505E-02
 0.32244E-02 0.25220E-02 -.82715E-03 -.25085E-02 -.26167E-02 -.54062E-02 -.10892E-01 -.14055E-01 -.12900E-01 -.10377E-01
 -.79703E-02 -.42293E-02 -.96748E-04 0.11187E-02 -.32002E-03 -.87888E-03 -.64782E-04 -.29499E-03 -.96544E-03 0.68172E-03
 0.24305E-02 -.76143E-03 -.35868E-02 -.34008E-02 -.47856E-02 -.10892E-01 -.16220E-01 -.15220E-01 -.11076E-01 -.88526E-02
 -.69357E-02 -.25961E-02 0.87568E-03 0.14562E-03 -.13796E-02 0.14943E-03 0.21104E-02 0.13482E-02 0.51533E-03 0.20269E-02
 0.19720E-03 -.25944E-02 -.33176E-02 -.32945E-02 -.75964E-02 -.14055E-01 -.15220E-01 -.11051E-01 -.84799E-02 -.86762E-02
 -.62705E-02 -.11434E-02 0.81383E-03 -.86631E-03 -.46749E-03 0.26591E-02 0.31420E-02 0.37494E-03 -.56288E-03 0.88491E-03
 0.60841E-03 -.13978E-02 -.17948E-02 -.37706E-02 -.92263E-02 -.12900E-01 -.11076E-01 -.84799E-02 -.92213E-02 -.90371E-02
 -.41071E-02 0.73120E-03 0.60154E-03 -.66867E-03 0.14490E-02 0.33868E-02 0.96559E-03 -.19803E-02 -.76817E-03 0.15465E-02
 0.11700E-02 -.10076E-02 -.19763E-02 -.49133E-02 -.91574E-02 -.10377E-01 -.88526E-02 -.86762E-02 -.90371E-02 -.55460E-02
 0.23450E-03 0.21988E-02 0.31436E-03 0.16407E-03 0.22532E-02 0.17498E-02 -.12134E-02 -.11684E-02 0.23053E-02 0.36165E-02
 -.96749E-03 -.21024E-02 -.25684E-02 -.50742E-02 -.77789E-02 -.79703E-02 -.69357E-02 -.62705E-02 -.41071E-02 0.23450E-03
 0.28894E-02 0.15437E-02 -.21275E-03 0.73268E-03 0.17453E-02 0.34561E-03 -.43752E-03 0.20098E-02 0.41861E-02 0.23642E-02
 -.21516E-02 -.11457E-02 -.13311E-02 -.36044E-02 -.50865E-02 -.42293E-02 -.25961E-02 -.11434E-02 0.73120E-03 0.21988E-02
 0.15437E-02 -.16458E-03 -.23924E-03 0.98887E-03 0.10595E-02 0.30247E-03 0.10506E-02 0.25112E-02 0.16427E-02 -.10910E-02
 0.60908E-03 0.15751E-02 0.18106E-03 -.17657E-02 -.16915E-02 -.96748E-04 0.87568E-03 0.81383E-03 0.60154E-03 0.31436E-03
 -.21275E-03 -.23924E-03 0.52626E-03 0.95570E-03 0.46729E-03 0.15333E-03 0.52323E-03 0.33530E-03 -.75975E-03 -.92577E-03
 0.29524E-02 0.17584E-02 -.20134E-03 -.60846E-03 0.56363E-03 0.11187E-02 0.14562E-03 -.86631E-03 -.66867E-03 0.16407E-03
 0.73268E-03 0.98887E-03 0.95570E-03 0.41088E-03 -.29335E-03 -.46479E-03 -.17311E-03 0.16225E-03 0.88604E-03 0.22360E-02
 0.10895E-02 -.60322E-03 -.97279E-03 0.19520E-03 0.80267E-03 -.32002E-03 -.13796E-02 -.46749E-03 0.14490E-02 0.22532E-02
 0.17453E-02 0.10595E-02 0.46729E-03 -.29335E-03 -.65687E-03 0.17105E-04 0.12142E-02 0.20937E-02 0.25238E-02 0.23478E-02
 -.10970E-02 -.12486E-02 -.12537E-03 0.96282E-03 0.27740E-03 -.87888E-03 0.14943E-03 0.26591E-02 0.33868E-02 0.17498E-02
 0.34561E-03 0.30247E-03 0.15333E-03 -.46479E-03 0.17105E-04 0.16811E-02 0.24756E-02 0.15936E-02 0.37578E-03 -.39779E-03
 -.57352E-04 0.62998E-05 0.91238E-03 0.11171E-02 -.54819E-04 -.64782E-04 0.21104E-02 0.31420E-02 0.96559E-03 -.12134E-02
 -.43752E-03 0.10506E-02 0.52323E-03 -.17311E-03 0.12142E-02 0.24756E-02 0.97461E-03 -.13305E-02 -.14416E-02 -.30060E-03
 0.35304E-03 -.51229E-03 0.42116E-03 0.27033E-03 -.94761E-03 -.29499E-03 0.13482E-02 0.37494E-03 -.19803E-02 -.11684E-02
 0.20098E-02 0.25112E-02 0.33530E-03 0.16225E-03 0.20937E-02 0.15936E-02 -.13305E-02 -.17600E-02 0.92908E-03 0.20551E-02
 -.28289E-02 -.21742E-02 -.18230E-03 -.10445E-02 -.23890E-02 -.96544E-03 0.51533E-03 -.56288E-03 -.76817E-03 0.23053E-02
 0.41861E-02 0.16427E-02 -.75975E-03 0.88604E-03 0.25238E-02 0.37578E-03 -.14416E-02 0.92908E-03 0.31212E-02 0.58486E-03
 -.46613E-02 -.98197E-03 0.29968E-03 -.20756E-02 -.23505E-02 0.68172E-03 0.20269E-02 0.88491E-03 0.15465E-02 0.36165E-02
 0.23642E-02 -.10910E-02 -.92577E-03 0.22360E-02 0.23478E-02 -.39779E-03 -.30060E-03 0.20551E-02 0.58486E-03 -.39963E-02
 0.51290E-01 0.51110E-01 0.38321E-01 0.21834E-01 0.11907E-01 0.70187E-02 0.19437E-02 -.93695E-03 0.15262E-02 0.43742E-02
 0.27033E-02 0.37194E-03 0.15274E-02 0.23829E-02 0.32655E-03 0.18105E-02 0.11905E-01 0.25057E-01 0.34875E-01 0.43302E-01
 0.51110E-01 0.43026E-01 0.27172E-01 0.14570E-01 0.86150E-02 0.39333E-02 -.67415E-03 -.33563E-03 0.45704E-02 0.72353E-02
 0.56835E-02 0.44010E-02 0.43424E-02 0.22526E-02 0.23316E-03 0.49476E-02 0.16610E-01 0.28809E-01 0.38823E-01 0.47646E-01
 0.38321E-01 0.27172E-01 0.15360E-01 0.84237E-02 0.46874E-02 0.18097E-02 0.27293E-02 0.93990E-02 0.16580E-01 0.18225E-01