unknown system                          
   1.00000000000000     
     2.573869    0.000000    0.000000
     1.286934    2.229036    0.000000
     0.000000    0.000000   18.304665
   Cu
     4
Direct
  0.000000  0.000000  0.331093
  0.333333  0.333333  0.443600
  0.666667  0.666667  0.556400
 -0.000000 -0.000000  0.668907
 
   20   20  144
 -.14334016956E+00 -.13230216794E+00 -.10333117459E+00 -.66614880933E-01 -.33217173722E-01
 -.10310427036E-01 0.63379155043E-03 0.25322527247E-02 -.43606073742E-04 -.31478716966E-02
 -.44296945360E-02 -.31478716966E-02 -.43606073824E-04 0.25322527246E-02 0.63379155047E-03
 -.10310427036E-01 -.33217173722E-01 -.66614880933E-01 -.10333117459E+00 -.13230216794E+00
 -.13230216794E+00 -.11228493981E+00 -.79172276918E-01 -.44665122704E-01 -.18275624379E-01
 -.36537076877E-02 0.54835078774E-03 -.16874211736E-02 -.55891532807E-02 -.74882724376E-02
 -.63352347895E-02 -.32490061353E-02 0.48112553621E-05 0.10520631927E-02 -.40029560331E-02
 -.19364581799E-01 -.46092132556E-01 -.79854488359E-01 -.11185608589E+00 -.13187699282E+00
 -.10333117459E+00 -.79172276918E-01 -.49086053823E-01 -.23653724520E-01 -.82799210934E-02
 -.29861391783E-02 -.52119268123E-02 -.10959050234E-01 -.15558512153E-01 -.16231311411E-01
 -.13526593580E-01 -.93002172911E-02 -.49827538781E-02 -.31455636819E-02 -.85114337331E-02
 -.24691993863E-01 -.50261309023E-01 -.78896140439E-01 -.10214282474E+00 -.11185608589E+00
 -.66614880933E-01 -.44665122704E-01 -.23653724520E-01 -.10218500075E-01 -.54908396094E-02
 -.82294830969E-02 -.16369802379E-01 -.25665127746E-01 -.31040670572E-01 -.30544669589E-01
 -.25641899385E-01 -.18054377179E-01 -.95973426987E-02 -.47191912737E-02 -.90005578960E-02
 -.23844972477E-01 -.44879419613E-01 -.65389345545E-01 -.78896140439E-01 -.79854488360E-01
 -.33217173722E-01 -.18275624379E-01 -.82799210932E-02 -.54908396093E-02 -.93764095242E-02
 -.19642633269E-01 -.33958339307E-01 -.46095639550E-01 -.50391142943E-01 -.46268901468E-01
 -.36220532885E-01 -.22628681945E-01 -.93732707428E-02 -.28054980003E-02 -.68725185195E-02
 -.18998719253E-01 -.33227471881E-01 -.44879419613E-01 -.50261309023E-01 -.46092132556E-01
 -.10310427035E-01 -.36537076875E-02 -.29861391780E-02 -.82294830968E-02 -.19642633269E-01
 -.37156558114E-01 -.55629754375E-01 -.66546398646E-01 -.65681436120E-01 -.55233390271E-01
 -.39044873601E-01 -.20780122902E-01 -.61934281445E-02 -.93471500306E-03 -.47677358913E-02
 -.12203210733E-01 -.18998719253E-01 -.23844972477E-01 -.24691993863E-01 -.19364581799E-01
 0.63379155068E-03 0.54835078792E-03 -.52119268121E-02 -.16369802379E-01 -.33958339307E-01
 -.55629754374E-01 -.72791161474E-01 -.77540801228E-01 -.69740551677E-01 -.54125121472E-01
 -.34744660970E-01 -.15913523950E-01 -.35792427359E-02 -.37782768213E-03 -.24036864398E-02
 -.47677358914E-02 -.68725185193E-02 -.90005578960E-02 -.85114337330E-02 -.40029560330E-02
 0.25322527249E-02 -.16874211733E-02 -.10959050234E-01 -.25665127746E-01 -.46095639550E-01
 -.66546398646E-01 -.77540801228E-01 -.75182200304E-01 -.63162825363E-01 -.46059874945E-01
 -.26829450974E-01 -.10251354132E-01 -.14404155220E-02 0.16940052105E-03 -.37782768209E-03
 -.93471500310E-03 -.28054980002E-02 -.47191912737E-02 -.31455636818E-02 0.10520631927E-02
 -.43606073504E-04 -.55891532804E-02 -.15558512153E-01 -.31040670572E-01 -.50391142943E-01
 -.65681436120E-01 -.69740551677E-01 -.63162825363E-01 -.50399259876E-01 -.33871534811E-01
 -.16401955178E-01 -.39420382921E-02 -.43738289982E-04 -.14404155219E-02 -.35792427358E-02
 -.61934281443E-02 -.93732707427E-02 -.95973426987E-02 -.49827538780E-02 0.48112554012E-05
 -.31478716964E-02 -.74882724373E-02 -.16231311411E-01 -.30544669589E-01 -.46268901467E-01
 -.55233390271E-01 -.54125121472E-01 -.46059874945E-01 -.33871534811E-01 -.18836607006E-01
 -.56119192195E-02 -.54344695892E-03 -.39420382921E-02 -.10251354132E-01 -.15913523950E-01
 -.20780122902E-01 -.22628681945E-01 -.18054377179E-01 -.93002172909E-02 -.32490061352E-02
 -.44296945357E-02 -.63352347892E-02 -.13526593579E-01 -.25641899385E-01 -.36220532885E-01
 -.39044873601E-01 -.34744660970E-01 -.26829450974E-01 -.16401955178E-01 -.56119192194E-02
 -.70957617650E-03 -.56119192194E-02 -.16401955178E-01 -.26829450974E-01 -.34744660970E-01
 -.39044873601E-01 -.36220532885E-01 -.25641899385E-01 -.13526593579E-01 -.63352347895E-02
 -.31478716963E-02 -.32490061351E-02 -.93002172909E-02 -.18054377179E-01 -.22628681945E-01
 -.20780122902E-01 -.15913523950E-01 -.10251354132E-01 -.39420382920E-02 -.54344695878E-03
 -.56119192195E-02 -.18836607006E-01 -.33871534811E-01 -.46059874945E-01 -.54125121472E-01
 -.55233390271E-01 -.46268901468E-01 -.30544669589E-01 -.16231311411E-01 -.74882724374E-02
 -.43606073511E-04 0.48112556357E-05 -.49827538779E-02 -.95973426986E-02 -.93732707427E-02
 -.61934281443E-02 -.35792427358E-02 -.14404155219E-02 -.43738289932E-04 -.39420382920E-02
 -.16401955178E-01 -.33871534811E-01 -.50399259877E-01 -.63162825363E-01 -.69740551677E-01
 -.65681436120E-01 -.50391142943E-01 -.31040670572E-01 -.15558512153E-01 -.55891532807E-02
 0.25322527249E-02 0.10520631928E-02 -.31455636817E-02 -.47191912737E-02 -.28054980004E-02
 -.93471500307E-03 -.37782768217E-03 0.16940052107E-03 -.14404155220E-02 -.10251354132E-01
 -.26829450974E-01 -.46059874945E-01 -.63162825363E-01 -.75182200304E-01 -.77540801228E-01
 -.66546398646E-01 -.46095639550E-01 -.25665127746E-01 -.10959050234E-01 -.16874211735E-02
 0.63379155071E-03 -.40029560329E-02 -.85114337329E-02 -.90005578958E-02 -.68725185194E-02
 -.47677358914E-02 -.24036864399E-02 -.37782768208E-03 -.35792427358E-02 -.15913523950E-01
 -.34744660970E-01 -.54125121472E-01 -.69740551677E-01 -.77540801228E-01 -.72791161474E-01
 -.55629754374E-01 -.33958339307E-01 -.16369802379E-01 -.52119268121E-02 0.54835078783E-03
 -.10310427035E-01 -.19364581799E-01 -.24691993863E-01 -.23844972477E-01 -.18998719253E-01
 -.12203210733E-01 -.47677358914E-02 -.93471500305E-03 -.61934281444E-02 -.20780122902E-01
 -.39044873602E-01 -.55233390271E-01 -.65681436120E-01 -.66546398646E-01 -.55629754374E-01
 -.37156558114E-01 -.19642633268E-01 -.82294830967E-02 -.29861391780E-02 -.36537076875E-02
 -.33217173722E-01 -.46092132556E-01 -.50261309023E-01 -.44879419613E-01 -.33227471881E-01
 -.18998719253E-01 -.68725185195E-02 -.28054980002E-02 -.93732707427E-02 -.22628681945E-01
 -.36220532885E-01 -.46268901468E-01 -.50391142943E-01 -.46095639550E-01 -.33958339307E-01
 -.19642633269E-01 -.93764095243E-02 -.54908396093E-02 -.82799210933E-02 -.18275624379E-01
 -.66614880933E-01 -.79854488359E-01 -.78896140439E-01 -.65389345545E-01 -.44879419613E-01
 -.23844972477E-01 -.90005578961E-02 -.47191912737E-02 -.95973426987E-02 -.18054377179E-01
 -.25641899385E-01 -.30544669589E-01 -.31040670572E-01 -.25665127746E-01 -.16369802379E-01
 -.82294830968E-02 -.54908396093E-02 -.10218500075E-01 -.23653724520E-01 -.44665122704E-01
 -.10333117459E+00 -.11185608589E+00 -.10214282474E+00 -.78896140439E-01 -.50261309023E-01
 -.24691993864E-01 -.85114337331E-02 -.31455636819E-02 -.49827538780E-02 -.93002172911E-02
 -.13526593580E-01 -.16231311411E-01 -.15558512153E-01 -.10959050234E-01 -.52119268123E-02
 -.29861391781E-02 -.82799210934E-02 -.23653724520E-01 -.49086053823E-01 -.79172276918E-01
 -.13230216794E+00 -.13187699282E+00 -.11185608589E+00 -.79854488360E-01 -.46092132556E-01
 -.19364581799E-01 -.40029560330E-02 0.10520631927E-02 0.48112554190E-05 -.32490061353E-02
 -.63352347895E-02 -.74882724375E-02 -.55891532808E-02 -.16874211736E-02 0.54835078777E-03
 -.36537076877E-02 -.18275624379E-01 -.44665122704E-01 -.79172276918E-01 -.11228493981E+00
 -.32061941179E-02 -.24417652007E-02 -.23547358503E-02 -.20393460721E-02 -.57131198844E-03
 0.10393674114E-02 0.14085166981E-02 0.84699450055E-03 0.30012924539E-03 -.28460889500E-03
 -.10023013463E-02 -.93745109978E-03 0.30025236069E-03 0.13856618621E-02 0.11377246415E-02
 0.18388133489E-03 -.57079406315E-03 -.15094854905E-02 -.29169283436E-02 -.37188911151E-02
 -.24417652007E-02 -.21881131507E-02 -.16698072411E-02 -.50175346882E-03 0.76848818327E-03
 0.98938122908E-03 -.51213929794E-04 -.13431905039E-02 -.19662400782E-02 -.18274056195E-02
 -.11214713195E-02 -.46850016286E-04 0.82791188214E-03 0.84304571256E-03 0.90993738752E-04
 -.73772802784E-03 -.13546303633E-02 -.19702588005E-02 -.25205596202E-02 -.26554213026E-02
 -.23547358503E-02 -.16698072413E-02 -.49140848762E-03 0.24521121401E-03 0.84518346682E-04
 -.78329757359E-03 -.19074313470E-02 -.27066112601E-02 -.26693426261E-02 -.19160718650E-02
 -.11990997749E-02 -.99090265293E-03 -.98158576486E-03 -.78415619863E-03 -.57259303617E-03
 -.63013857866E-03 -.82636667446E-03 -.10243715462E-02 -.14508114418E-02 -.21087109543E-02
 -.20393460719E-02 -.50175346882E-03 0.24521121401E-03 -.38077436318E-03 -.11998366318E-02
 -.16847694190E-02 -.25102676686E-02 -.36245496710E-02 -.40840211285E-02 -.39132255609E-02
 -.39575035812E-02 -.38959628683E-02 -.26268860808E-02 -.60151362031E-03 0.47883518664E-03
 0.25575404356E-03 -.17219906999E-03 -.54958581177E-03 -.15128161476E-02 -.24824492400E-02
 -.57131198815E-03 0.76848818321E-03 0.84518346867E-04 -.11998366316E-02 -.14706147531E-02
 -.20624847076E-02 -.44594690859E-02 -.71167837515E-02 -.79777312528E-02 -.75613575727E-02
 -.68565085892E-02 -.49352986245E-02 -.14679478228E-02 0.11514001501E-02 0.10764330902E-02
 -.14996115684E-03 -.57705919517E-03 -.88810837354E-03 -.19143930464E-02 -.21401418113E-02
 0.10393674117E-02 0.98938122923E-03 -.78329757341E-03 -.16847694189E-02 -.20624847077E-02
 -.47994043528E-02 -.93745337187E-02 -.11835040966E-01 -.10913462498E-01 -.89535589269E-02
 -.68157406497E-02 -.32938592851E-02 0.41446867922E-03 0.12353326904E-02 -.46626985885E-03
 -.12807589057E-02 -.52598532650E-03 -.52101200109E-03 -.13352557692E-02 -.67950407492E-03
 0.14085166984E-02 -.51213929623E-04 -.19074313467E-02 -.25102676685E-02 -.44594690857E-02
 -.93745337187E-02 -.13439302449E-01 -.12966972860E-01 -.99830182099E-02 -.77700373208E-02
 -.55174312399E-02 -.19905891036E-02 0.27888529851E-03 -.60948924762E-03 -.17691115960E-02
 -.47503419140E-03 0.10709758235E-02 0.37005617833E-03 -.55700501584E-03 0.50369073921E-03
 0.84699450070E-03 -.13431905036E-02 -.27066112599E-02 -.36245496708E-02 -.71167837517E-02
 -.11835040966E-01 -.12966972860E-01 -.10257610225E-01 -.80290212522E-02 -.73030056881E-02
 -.51441725263E-02 -.17083968705E-02 -.46590086804E-03 -.12463335600E-02 -.37887820181E-03
 0.20495543740E-02 0.22592956172E-02 0.18573236343E-03 -.34940906019E-03 0.10313810845E-02
 0.30012924565E-03 -.19662400779E-02 -.26693426259E-02 -.40840211283E-02 -.79777312526E-02
 -.10913462498E-01 -.99830182102E-02 -.80290212522E-02 -.79827231981E-02 -.73834623223E-02
 -.37965033974E-02 -.22644427338E-03 0.30020229748E-03 0.21965651938E-03 0.21419889604E-02
 0.34567823901E-02 0.16490320114E-02 -.31649338791E-03 0.58979009718E-03 0.18145299589E-02
 -.28460889481E-03 -.18274056193E-02 -.19160718649E-02 -.39132255608E-02 -.75613575725E-02
 -.89535589269E-02 -.77700373208E-02 -.73030056879E-02 -.73834623221E-02 -.46985525840E-02
 -.84207192206E-04 0.19947788340E-02 0.12870553802E-02 0.17147161222E-02 0.36076034247E-02
 0.34665411914E-02 0.14073405928E-02 0.12262701155E-02 0.29003719725E-02 0.24960683185E-02
 -.10023013460E-02 -.11214713192E-02 -.11990997747E-02 -.39575035809E-02 -.68565085890E-02
 -.68157406496E-02 -.55174312399E-02 -.51441725262E-02 -.37965033973E-02 -.84207192121E-04
 0.27231099549E-02 0.21556901693E-02 0.12725923099E-02 0.30609969449E-02 0.50752873473E-02
 0.45043034759E-02 0.34664308278E-02 0.42580041308E-02 0.44326715822E-02 0.17423482225E-02
 -.93745109951E-03 -.46850016162E-04 -.99090265263E-03 -.38959628682E-02 -.49352986245E-02
 -.32938592851E-02 -.19905891036E-02 -.17083968705E-02 -.22644427338E-03 0.19947788341E-02
 0.21556901693E-02 0.10995579970E-02 0.25150820597E-02 0.60829991184E-02 0.77381533938E-02
 0.67050270104E-02 0.59254380418E-02 0.57030337688E-02 0.35285423192E-02 0.14189254173E-03
 0.30025236098E-03 0.82791188239E-03 -.98158576466E-03 -.26268860807E-02 -.14679478228E-02
 0.41446867924E-03 0.27888529848E-03 -.46590086794E-03 0.30020229750E-03 0.12870553803E-02
 0.12725923098E-02 0.25150820596E-02 0.64080410063E-02 0.97508606782E-02 0.95443361909E-02
 0.75874460920E-02 0.64114097095E-02 0.48792963807E-02 0.18375331898E-02 -.26561542813E-03
 0.13856618623E-02 0.84304571273E-03 -.78415619845E-03 -.60151362040E-03 0.11514001501E-02
 0.12353326905E-02 -.60948924771E-03 -.12463335600E-02 0.21965651923E-03 0.17147161221E-02
 0.30609969447E-02 0.60829991183E-02 0.97508606782E-02 0.10663422233E-01 0.86496966666E-02
 0.67806796669E-02 0.58248655948E-02 0.38755385549E-02 0.12986402593E-02 0.60024631093E-03
 0.11377246417E-02 0.90993738866E-04 -.57259303594E-03 0.47883518670E-03 0.10764330904E-02
 -.46626985892E-03 -.17691115961E-02 -.37887820177E-03 0.21419889603E-02 0.36076034246E-02
 0.50752873474E-02 0.77381533939E-02 0.95443361909E-02 0.86496966665E-02 0.69008502611E-02
 0.63373803221E-02 0.55927232102E-02 0.32119118379E-02 0.10593364656E-02 0.91754902580E-03
 0.18388133492E-03 -.73772802770E-03 -.63013857860E-03 0.25575404371E-03 -.14996115686E-03
 -.12807589057E-02 -.47503419144E-03 0.20495543741E-02 0.34567823900E-02 0.34665411913E-02
 0.45043034757E-02 0.67050270103E-02 0.75874460920E-02 0.67806796668E-02 0.63373803220E-02
 0.62666614060E-02 0.45080224161E-02 0.14807434512E-02 -.31168863188E-04 0.30503903102E-03
 -.57079406315E-03 -.13546303633E-02 -.82636667440E-03 -.17219907033E-03 -.57705919517E-03
 -.52598532653E-03 0.10709758233E-02 0.22592956172E-02 0.16490320114E-02 0.14073405927E-02
 0.34664308276E-02 0.59254380418E-02 0.64114097093E-02 0.58248655947E-02 0.55927232102E-02
 0.45080224161E-02 0.16456882680E-02 -.76121440460E-03 -.75370617421E-03 -.25993544170E-05
 -.15094854901E-02 -.19702588004E-02 -.10243715462E-02 -.54958581165E-03 -.88810837372E-03
 -.52101200112E-03 0.37005617821E-03 0.18573236338E-03 -.31649338797E-03 0.12262701156E-02
 0.42580041307E-02 0.57030337686E-02 0.48792963807E-02 0.38755385549E-02 0.32119118377E-02
 0.14807434512E-02 -.76121440469E-03 -.12141097239E-02 -.13432960390E-03 -.13108619527E-03
 -.29169283437E-02 -.25205596202E-02 -.14508114418E-02 -.15128161479E-02 -.19143930464E-02
 -.13352557694E-02 -.55700501605E-03 -.34940906021E-03 0.58979009705E-03 0.29003719725E-02
 0.44326715819E-02 0.35285423189E-02 0.18375331896E-02 0.12986402591E-02 0.10593364655E-02
 -.31168863273E-04 -.75370617421E-03 -.13432960407E-03 0.10647256300E-03 -.14110556109E-02
 -.37188911152E-02 -.26554213030E-02 -.21087109548E-02 -.24824492400E-02 -.21401418112E-02
 -.67950407492E-03 0.50369073918E-03 0.10313810845E-02 0.18145299589E-02 0.24960683184E-02
 0.17423482224E-02 0.14189254158E-03 -.26561542818E-03 0.60024631090E-03 0.91754902574E-03
 0.30503903089E-03 -.25993544455E-05 -.13108619521E-03 -.14110556109E-02 -.32950628014E-02
 0.14392373959E+00 0.13389362024E+00 0.10373610335E+00 0.65918209633E-01 0.33853169921E-01
 0.13042969569E-01 0.22790330307E-02 -.88135027415E-03 0.66454412439E-03 0.26946062793E-02
 0.25828166042E-02 0.13923476137E-02 0.66441738712E-03 0.19322350777E-03 0.17403091467E-02
 0.11338084581E-01 0.33854094723E-01 0.66974120914E-01 0.10261495480E+00 0.13134735061E+00
 0.13389362024E+00 0.11335333092E+00 0.79595544980E-01 0.45662460976E-01 0.20516224472E-01
 0.58398506571E-02 -.15340245842E-03 0.27794185808E-03 0.37812552679E-02 0.64933794785E-02
 0.67549060633E-02 0.52826044670E-02 0.29259472115E-02 0.11304197149E-02 0.43955447649E-02
 0.18592030471E-01 0.45374803599E-01 0.79671192610E-01 0.11226391159E+00 0.13304514459E+00
 0.10373610335E+00 0.79595544980E-01 0.50184179161E-01 0.24855440073E-01 0.86697026063E-02
 0.22622321594E-02 0.37672022912E-02 0.97884002334E-02 0.15973722990E-01 0.18733726345E-01
 0.16886885823E-01 0.11560861834E-01 0.53842611812E-02 0.24183272440E-02 0.75897297903E-02
 0.24141534655E-01 0.50681609483E-01 0.80604455953E-01 0.10435552376E+00 0.11326839696E+00
 0.65918209632E-01 0.45662460976E-01 0.24855440073E-01 0.96806082825E-02 0.41415313193E-02
 0.80906155384E-02 0.17590223586E-01 0.27548270470E-01 0.33775205396E-01 0.33624725568E-01
 0.26863907015E-01 0.16500625242E-01 0.75684261364E-02 0.45675918262E-02 0.10187946091E-01
 0.25070688260E-01 0.46533194135E-01 0.67668249470E-01 0.80112351641E-01 0.79132599393E-01
 0.33853169921E-01 0.20516224472E-01 0.86697026065E-02 0.41415313194E-02 0.10004201883E-01
 0.23020448372E-01 0.36907757786E-01 0.47159059982E-01 0.51034421272E-01 0.46446368904E-01
 0.34377515755E-01 0.20259745487E-01 0.10005780403E-01 0.61616035221E-02 0.92503578726E-02
 0.19406665149E-01 0.33857147559E-01 0.45841966694E-01 0.49540687799E-01 0.44547128957E-01
 0.13042969569E-01 0.58398506571E-02 0.22622321596E-02 0.80906155385E-02 0.23020448372E-01
 0.40488651814E-01 0.54915338015E-01 0.64015479465E-01 0.64991294860E-01 0.55357280180E-01
 0.38343505368E-01 0.21698457375E-01 0.10255315715E-01 0.42474864598E-02 0.40418228601E-02
 0.10297011106E-01 0.19365657509E-01 0.24734494490E-01 0.23950365145E-01 0.19419622486E-01
 0.22790330310E-02 -.15340245828E-03 0.37672022914E-02 0.17590223586E-01 0.36907757786E-01
 0.54915338015E-01 0.68794706259E-01 0.76329191674E-01 0.72651597539E-01 0.56615712777E-01
 0.35578608836E-01 0.18175083828E-01 0.65065805037E-02 -.34813020564E-03 -.10420920237E-02
 0.42001242715E-02 0.97684343303E-02 0.10645266034E-01 0.81529353488E-02 0.53953563802E-02
 -.88135027403E-03 0.27794185840E-03 0.97884002335E-02 0.27548270470E-01 0.47159059982E-01
 0.64015479465E-01 0.76329191674E-01 0.79390270128E-01 0.68246423363E-01 0.46752978972E-01
 0.25672436239E-01 0.11072747267E-01 0.17817933176E-02 -.27071375668E-02 -.81540529337E-03
 0.45274364989E-02 0.68000236889E-02 0.45680523612E-02 0.19428692440E-02 0.57740272085E-03
 0.66454412463E-03 0.37812552682E-02 0.15973722990E-01 0.33775205397E-01 0.51034421272E-01
 0.64991294860E-01 0.72651597539E-01 0.68246423363E-01 0.51038423959E-01 0.30009826872E-01
 0.14561009383E-01 0.56098637705E-02 0.66348035625E-03 0.74536222973E-03 0.59612500448E-02
 0.10647533373E-01 0.99915700709E-02 0.65016588364E-02 0.42553643489E-02 0.24869601199E-02
 0.26946062794E-02 0.64933794786E-02 0.18733726345E-01 0.33624725569E-01 0.46446368904E-01
 0.55357280180E-01 0.56615712777E-01 0.46752978972E-01 0.30009826872E-01 0.15774928723E-01
 0.81074285565E-02 0.46528231700E-02 0.48033092312E-02 0.10373802591E-01 0.18402237370E-01
 0.22091547091E-01 0.19820115087E-01 0.15778145095E-01 0.11792887846E-01 0.65266083995E-02
 0.25828166045E-02 0.67549060636E-02 0.16886885824E-01 0.26863907015E-01 0.34377515755E-01
 0.38343505368E-01 0.35578608836E-01 0.25672436239E-01 0.14561009383E-01 0.81074285565E-02
 0.63223249306E-02 0.78754899542E-02 0.14562043256E-01 0.26130775125E-01 0.36110009801E-01
 0.38504349710E-01 0.34371930965E-01 0.27343570033E-01 0.18009572816E-01 0.77663501058E-02
 0.13923476140E-02 0.52826044672E-02 0.11560861834E-01 0.16500625242E-01 0.20259745487E-01
 0.21698457375E-01 0.18175083828E-01 0.11072747267E-01 0.56098637705E-02 0.46528231700E-02
 0.78754899542E-02 0.16246833072E-01 0.30817532802E-01 0.46977957328E-01 0.56377257598E-01
 0.55419089712E-01 0.46874046746E-01 0.33872300912E-01 0.18502040471E-01 0.57208315592E-02
 0.66441738734E-03 0.29259472117E-02 0.53842611814E-02 0.75684261365E-02 0.10005780403E-01
 0.10255315715E-01 0.65065805036E-02 0.17817933177E-02 0.66348035626E-03 0.48033092312E-02
 0.14562043256E-01 0.30817532802E-01 0.51039121840E-01 0.67213502026E-01 0.72114386203E-01
 0.65394992050E-01 0.51033178112E-01 0.32720969869E-01 0.14853631053E-01 0.33450919349E-02
 0.19322350792E-03 0.11304197150E-02 0.24183272442E-02 0.45675918262E-02 0.61616035221E-02
 0.42474864598E-02 -.34813020575E-03 -.27071375668E-02 0.74536222955E-03 0.10373802591E-01
 0.26130775125E-01 0.46977957328E-01 0.67213502026E-01 0.78471673155E-01 0.76795175146E-01
 0.64646010453E-01 0.46498908108E-01 0.26602232207E-01 0.10247895984E-01 0.17466065205E-02
 0.17403091468E-02 0.43955447650E-02 0.75897297905E-02 0.10187946091E-01 0.92503578727E-02
 0.40418228600E-02 -.10420920238E-02 -.81540529334E-03 0.59612500447E-02 0.18402237370E-01
 0.36110009801E-01 0.56377257598E-01 0.72114386202E-01 0.76795175146E-01 0.69873609696E-01
 0.55081067812E-01 0.36363411100E-01 0.18065098543E-01 0.54200744253E-02 0.85030116380E-03
 0.11338084581E-01 0.18592030471E-01 0.24141534656E-01 0.25070688260E-01 0.19406665149E-01
 0.10297011105E-01 0.42001242714E-02 0.45274364989E-02 0.10647533373E-01 0.22091547091E-01
 0.38504349710E-01 0.55419089712E-01 0.65394992050E-01 0.64646010453E-01 0.55081067812E-01
 0.40144678030E-01 0.23037549389E-01 0.87283154157E-02 0.24178420048E-02 0.46529359605E-02
 0.33854094722E-01 0.45374803599E-01 0.50681609483E-01 0.46533194135E-01 0.33857147559E-01
 0.19365657509E-01 0.97684343300E-02 0.68000236888E-02 0.99915700708E-02 0.19820115087E-01
 0.34371930964E-01 0.46874046746E-01 0.51033178112E-01 0.46498908108E-01 0.36363411100E-01
 0.23037549389E-01 0.99890012293E-02 0.34445040002E-02 0.75285983137E-02 0.19690173621E-01
 0.66974120914E-01 0.79671192610E-01 0.80604455953E-01 0.67668249469E-01 0.45841966694E-01
 0.24734494490E-01 0.10645266033E-01 0.45680523612E-02 0.65016588363E-02 0.15778145095E-01
 0.27343570033E-01 0.33872300912E-01 0.32720969869E-01 0.26602232207E-01 0.18065098543E-01
 0.87283154156E-02 0.34445040001E-02 0.86921716094E-02 0.25313006230E-01 0.47139462936E-01
 0.10261495480E+00 0.11226391159E+00 0.10435552376E+00 0.80112351641E-01 0.49540687799E-01
 0.23950365144E-01 0.81529353486E-02 0.19428692440E-02 0.42553643487E-02 0.11792887846E-01
 0.18009572815E-01 0.18502040470E-01 0.14853631053E-01 0.10247895984E-01 0.54200744252E-02
 0.24178420047E-02 0.75285983136E-02 0.25313006230E-01 0.52405591090E-01 0.80593763590E-01
 0.13134735061E+00 0.13304514459E+00 0.11326839696E+00 0.79132599393E-01 0.44547128957E-01
 0.19419622486E-01 0.53953563801E-02 0.57740272084E-03 0.24869601199E-02 0.65266083994E-02
 0.77663501058E-02 0.57208315591E-02 0.33450919349E-02 0.17466065205E-02 0.85030116374E-03
 0.46529359603E-02 0.19690173621E-01 0.47139462936E-01 0.80593763590E-01 0.11132965887E+00
 0.10820442702E-01 0.11815661835E-01 0.84632688878E-02 0.42151199237E-02 0.30092639161E-02
 0.32306257596E-02 0.18926469690E-02 0.24157076585E-03 0.35232663894E-03 0.59992559878E-03
 -.69203461865E-03 -.13517656108E-02 0.35201052154E-03 0.18532792630E-02 0.10888631210E-02
 0.67866486131E-03 0.30101079567E-02 0.57952978668E-02 0.67831832603E-02 0.80016990914E-02
 0.11815661835E-01 0.98332920920E-02 0.56165594618E-02 0.31458432049E-02 0.29712099460E-02
 0.21081793412E-02 -.72912206974E-05 -.71493910934E-03 0.59417943856E-03 0.15296946224E-02
 0.13469860197E-02 0.16779656257E-02 0.24111084618E-02 0.16685432285E-02 0.12051328228E-03
 0.62955975588E-03 0.34235451753E-02 0.60713137015E-02 0.79930538130E-02 0.10336073750E-01
 0.84632688880E-02 0.56165594616E-02 0.30844784506E-02 0.20646325186E-02 0.13810154933E-02
 0.16504929858E-03 -.11350383854E-03 0.17928431677E-02 0.43508935358E-02 0.53277682902E-02
 0.47078574774E-02 0.36227907757E-02 0.21947188043E-02 0.47694505761E-03 -.12383116152E-03
 0.15099655962E-02 0.44151762173E-02 0.69938048010E-02 0.88027398784E-02 0.95924547775E-02
 0.42151199237E-02 0.31458432049E-02 0.20646325187E-02 0.91398313656E-03 0.47381593679E-03
 0.16304839044E-02 0.42721676827E-02 0.71645627347E-02 0.87853021924E-02 0.83139724530E-02
 0.61294226443E-02 0.34780005335E-02 0.15259166945E-02 0.72416154879E-03 0.10664206530E-02
 0.24831149418E-02 0.45574472907E-02 0.62259857801E-02 0.65047604155E-02 0.55148977144E-02
 0.30092639163E-02 0.29712099460E-02 0.13810154934E-02 0.47381593683E-03 0.25693624963E-02
 0.63974674884E-02 0.92546713596E-02 0.10568445631E-01 0.10866084699E-01 0.95875278376E-02
 0.65909056402E-02 0.37477811621E-02 0.25691151926E-02 0.21634437409E-02 0.15528057183E-02
 0.16705026811E-02 0.30175281686E-02 0.39003099355E-02 0.32378058140E-02 0.25680541381E-02
 0.32306257599E-02 0.21081793413E-02 0.16504929868E-03 0.16304839045E-02 0.63974674883E-02
 0.10029535788E-01 0.11024896219E-01 0.11873967206E-01 0.12903665423E-01 0.11487156014E-01
 0.77563434632E-02 0.49857624510E-02 0.38629014151E-02 0.21209550686E-02 -.28625610476E-04
 0.58710178877E-04 0.19744633856E-02 0.26075208847E-02 0.18569430727E-02 0.22414590779E-02
 0.18926469692E-02 -.72912205766E-05 -.11350383833E-03 0.42721676828E-02 0.92546713597E-02
 0.11024896219E-01 0.12040647423E-01 0.14922187594E-01 0.16296596540E-01 0.12821332663E-01
 0.76566888201E-02 0.49235634289E-02 0.31781735201E-02 0.16266776204E-03 -.15710505836E-02
 0.30548105917E-03 0.26123956847E-02 0.21155115764E-02 0.10106984098E-02 0.17174475397E-02
 0.24157076589E-03 -.71493910908E-03 0.17928431677E-02 0.71645627348E-02 0.10568445631E-01
 0.11873967206E-01 0.14922187594E-01 0.18333299776E-01 0.16527751299E-01 0.99434503739E-02
 0.49339461309E-02 0.33613150974E-02 0.14103804437E-02 -.13190051019E-02 -.99661560370E-03
 0.18776064925E-02 0.23487465609E-02 -.42967813712E-04 -.89553502045E-03 0.37643131396E-03
 0.35232663914E-03 0.59417943880E-03 0.43508935359E-02 0.87853021926E-02 0.10866084699E-01
 0.12903665423E-01 0.16296596540E-01 0.16527751299E-01 0.10878277825E-01 0.45545309562E-02
 0.26520161108E-02 0.25090083778E-02 0.34749054229E-03 -.13472207812E-02 0.22506421474E-03
 0.16048025298E-02 -.57497616206E-03 -.29162930521E-02 -.16368626904E-02 0.54118487001E-03
 0.59992559899E-03 0.15296946225E-02 0.53277682904E-02 0.83139724533E-02 0.95875278378E-02
 0.11487156014E-01 0.12821332664E-01 0.99434503741E-02 0.45545309564E-02 0.21927306383E-02
 0.30155875631E-02 0.22387755310E-02 -.62358858380E-03 -.14712019798E-02 -.23829142423E-03
 -.10096449649E-02 -.34938253132E-02 -.31066082419E-02 0.17987629484E-03 0.16125194370E-02
 -.69203461839E-03 0.13469860200E-02 0.47078574777E-02 0.61294226446E-02 0.65909056404E-02
 0.77563434634E-02 0.76566888201E-02 0.49339461309E-02 0.26520161108E-02 0.30155875631E-02
 0.30652197219E-02 0.30052836667E-03 -.24375061335E-02 -.23871935956E-02 -.19127077740E-02
 -.32827864099E-02 -.37800977488E-02 -.11571634841E-02 0.12988139166E-02 0.49348471350E-03
 -.13517656106E-02 0.16779656258E-02 0.36227907760E-02 0.34780005336E-02 0.37477811623E-02
 0.49857624511E-02 0.49235634289E-02 0.33613150975E-02 0.25090083778E-02 0.22387755310E-02
 0.30052836666E-03 -.26886726909E-02 -.37698453715E-02 -.30430583328E-02 -.32191991516E-02
 -.41030278826E-02 -.30919304057E-02 -.84336391427E-03 -.60441901208E-03 -.19971838581E-02
 0.35201052173E-03 0.24111084620E-02 0.21947188045E-02 0.15259166946E-02 0.25691151927E-02
 0.38629014151E-02 0.31781735200E-02 0.14103804438E-02 0.34749054226E-03 -.62358858381E-03
 -.24375061337E-02 -.37698453717E-02 -.35651614041E-02 -.33805998044E-02 -.43738792666E-02
 -.48564479203E-02 -.35787876870E-02 -.23225398257E-02 -.24185451747E-02 -.19896565945E-02
 0.18532792631E-02 0.16685432287E-02 0.47694505776E-03 0.72416154872E-03 0.21634437410E-02
 0.21209550686E-02 0.16266776196E-03 -.13190051019E-02 -.13472207813E-02 -.14712019798E-02
 -.23871935958E-02 -.30430583329E-02 -.33805998044E-02 -.44987161797E-02 -.58420507045E-02
 -.55509223673E-02 -.37425434461E-02 -.22571700867E-02 -.13101140599E-02 0.27302763383E-03
 0.10888631211E-02 0.12051328245E-03 -.12383116125E-03 0.10664206531E-02 0.15528057184E-02
 -.28625610462E-04 -.15710505838E-02 -.99661560368E-03 0.22506421469E-03 -.23829142422E-03
 -.19127077739E-02 -.32191991515E-02 -.43738792665E-02 -.58420507044E-02 -.62193586285E-02
 -.44140532461E-02 -.19203877684E-02 -.51725714499E-03 0.21991289458E-03 0.10345897165E-02
 0.67866486140E-03 0.62955975594E-03 0.15099655963E-02 0.24831149419E-02 0.16705026810E-02
 0.58710178820E-04 0.30548105907E-03 0.18776064926E-02 0.16048025297E-02 -.10096449651E-02
 -.32827864102E-02 -.41030278825E-02 -.48564479203E-02 -.55509223673E-02 -.44140532463E-02
 -.17602264562E-02 -.15376105905E-03 -.26051736873E-03 -.26669107893E-03 0.43102468351E-03
 0.30101079567E-02 0.34235451753E-02 0.44151762173E-02 0.45574472904E-02 0.30175281685E-02
 0.19744633856E-02 0.26123956845E-02 0.23487465608E-02 -.57497616212E-03 -.34938253132E-02
 -.37800977489E-02 -.30919304058E-02 -.35787876871E-02 -.37425434462E-02 -.19203877685E-02
 -.15376105901E-03 -.57538719876E-03 -.13441596680E-02 -.42003377544E-04 0.21055855646E-02
 0.57952978671E-02 0.60713137016E-02 0.69938048011E-02 0.62259857798E-02 0.39003099355E-02
 0.26075208846E-02 0.21155115763E-02 -.42967813776E-04 -.29162930522E-02 -.31066082419E-02
 -.11571634841E-02 -.84336391443E-03 -.23225398257E-02 -.22571700868E-02 -.51725714518E-03
 -.26051736879E-03 -.13441596680E-02 -.20498154207E-03 0.33828958667E-02 0.57411954732E-02
 0.67831832603E-02 0.79930538132E-02 0.88027398782E-02 0.65047604153E-02 0.32378058141E-02
 0.18569430725E-02 0.10106984096E-02 -.89553502040E-03 -.16368626905E-02 0.17987629475E-03
 0.12988139164E-02 -.60441901229E-03 -.24185451749E-02 -.13101140600E-02 0.21991289451E-03
 -.26669107901E-03 -.42003377487E-04 0.33828958665E-02 0.69464183499E-02 0.73613909896E-02
 0.80016990913E-02 0.10336073750E-01 0.95924547772E-02 0.55148977146E-02 0.25680541380E-02
 0.22414590778E-02 0.17174475397E-02 0.37643131391E-03 0.54118486997E-03 0.16125194369E-02
 0.49348471339E-03 -.19971838583E-02 -.19896565946E-02 0.27302763382E-03 0.10345897164E-02
 0.43102468339E-03 0.21055855646E-02 0.57411954733E-02 0.73613909894E-02 0.68967895803E-02
 -.14327594252E+00 -.12968890605E+00 -.10213730350E+00 -.67589069642E-01 -.33128127700E-01
 -.85119120333E-02 0.12649771709E-02 0.15403177859E-02 0.13045026460E-04 -.18254327873E-02
 -.44296383413E-02 -.44336368022E-02 0.13202440083E-04 0.36967393434E-02 0.19523865967E-03
 -.11919309571E-01 -.33128045296E-01 -.65480060391E-01 -.10438279268E+00 -.13478411660E+00
 -.12968890605E+00 -.11019890288E+00 -.80102157390E-01 -.46062878827E-01 -.17365932593E-01