    4    4   50    1
  0.2625459E+02  0.2573869E-09  0.2573869E-09  0.1830466E-08  0.5000000E-15
  1.000000000000000E-004
  CAR 
 unknown system                          
     44     28     26
 
  0.3742002E-15  0.3742002E-15  0.1262379E-14  0.5000000E-02
    1       -9.626831   1.000000
    2       -8.363863   1.000000
    3       -6.686099   1.000000
    4       -5.877137   1.000000
    5       -3.861702   1.000000
    6       -3.840527   1.000000
    7       -3.790425   1.000000
    8       -3.790130   1.000000
    9       -3.759723   1.000000
   10       -3.759459   1.000000
   11       -3.600527   1.000000
   12       -3.600220   1.000000
   13       -3.562279   1.000000
   14       -3.548325   1.000000
   15       -3.548007   1.000000
   16       -3.009624   1.000000
   17       -3.009527   1.000000
   18       -2.904338   1.000000
   19       -2.904308   1.000000
   20       -2.630671   1.000000
   21       -2.630628   1.000000
   22       -2.462941   1.000000
   23       -2.462870   1.000000
   24       -2.002874   1.000000
   25       -0.933963   0.865011
   26        3.353606   0.000000
 
  0.1000000E+00  0.3784579E-15  0.1262379E-14  0.3000000E-01
    1       -9.313347   1.000000
    2       -8.064231   1.000000
    3       -6.413863   1.000000
    4       -5.668090   1.000000
    5       -4.013864   1.000000
    6       -3.973808   1.000000
    7       -3.884104   1.000000
    8       -3.704797   1.000000
    9       -3.691362   1.000000
   10       -3.682811   1.000000
   11       -3.668509   1.000000
   12       -3.644842   1.000000
   13       -3.526903   1.000000
   14       -3.502102   1.000000
   15       -3.451081   1.000000
   16       -3.077947   1.000000
   17       -3.061805   1.000000
   18       -2.967902   1.000000
   19       -2.889536   1.000000
   20       -2.856133   1.000000
   21       -2.629099   1.000000
   22       -2.582683   1.000000
   23       -2.458560   1.000000
   24       -1.466859   0.999999
   25       -0.231083   0.000055
   26        3.660605   0.000000
 
  0.2000000E+00  0.3776408E-15  0.1262379E-14  0.3000000E-01
    1       -8.411313   1.000000
    2       -7.229204   1.000000
    3       -5.726454   1.000000
    4       -5.169140   1.000000
    5       -4.358080   1.000000
    6       -4.153930   1.000000
    7       -4.115396   1.000000
    8       -3.803176   1.000000
    9       -3.771753   1.000000
   10       -3.722270   1.000000
   11       -3.584712   1.000000
   12       -3.498700   1.000000
   13       -3.408504   1.000000
   14       -3.336646   1.000000
   15       -3.291875   1.000000
   16       -3.187128   1.000000
   17       -3.161216   1.000000
   18       -3.028757   1.000000
   19       -2.897071   1.000000
   20       -2.861513   1.000000
   21       -2.632086   1.000000
   22       -2.445298   1.000000
   23       -2.191765   1.000000
   24       -0.517021   0.032510
   25        1.203759   0.000000
   26        4.528791   0.000000
 
  0.3000000E+00  0.3689191E-15  0.1262379E-14  0.3000000E-01
    1       -7.096282   1.000000
    2       -6.178258   1.000000
    3       -5.241267   1.000000
    4       -4.871729   1.000000
    5       -4.645531   1.000000
    6       -4.369666   1.000000
    7       -4.140938   1.000000
    8       -3.931516   1.000000
    9       -3.681189   1.000000
   10       -3.623776   1.000000
   11       -3.518844   1.000000
   12       -3.438229   1.000000
   13       -3.334755   1.000000
   14       -3.254482   1.000000
   15       -3.003242   1.000000
   16       -2.916971   1.000000
   17       -2.834696   1.000000
   18       -2.729292   1.000000
   19       -2.719669   1.000000
   20       -2.709141   1.000000
   21       -2.612441   1.000000
   22       -2.427420   1.000000
   23       -1.518731   1.000000
   24        0.729006   0.000000
   25        3.021719   0.000000
   26        5.741534   0.000000
 
  0.4000000E+00  0.3903587E-15  0.1262379E-14  0.3000000E-01
    1       -5.946863   1.000000
    2       -5.598945   1.000000
    3       -5.212177   1.000000
    4       -5.007288   1.000000
    5       -4.851916   1.000000
    6       -4.578739   1.000000
    7       -4.054215   1.000000
    8       -3.807613   1.000000
    9       -3.709837   1.000000
   10       -3.702211   1.000000
   11       -3.363489   1.000000
   12       -3.275110   1.000000
   13       -2.893135   1.000000
   14       -2.802635   1.000000
   15       -2.610444   1.000000
   16       -2.570278   1.000000
   17       -2.558809   1.000000
   18       -2.458731   1.000000
   19       -2.421935   1.000000
   20       -2.370102   1.000000
   21       -2.314083   1.000000
   22       -1.765607   1.000000
   23       -0.257725   0.000117
   24        2.010532   0.000000
   25        4.115773   0.000000
   26        4.852601   0.000000
 
  0.5000000E+00  0.4489755E-15  0.1262379E-14  0.1500000E-01
    1       -5.628541   1.000000
    2       -5.500124   1.000000
    3       -5.108918   1.000000
    4       -5.070635   1.000000
    5       -5.025640   1.000000
    6       -4.657735   1.000000
    7       -4.064207   1.000000
    8       -3.853616   1.000000
    9       -3.746705   1.000000
   10       -3.549298   1.000000
   11       -3.291626   1.000000
   12       -3.241272   1.000000
   13       -2.779042   1.000000
   14       -2.704752   1.000000
   15       -2.511117   1.000000
   16       -2.510188   1.000000
   17       -2.451013   1.000000
   18       -2.386714   1.000000
   19       -2.299793   1.000000
   20       -2.283034   1.000000
   21       -1.029619   0.962421
   22       -0.076888   0.000000
   23        0.489609   0.000000
   24        0.755776   0.000000
   25        3.410640   0.000000
   26        4.225234   0.000000
 
  0.2000000E+00  0.1000000E+00  0.1262379E-14  0.3000000E-01
    1       -8.703954   1.000000
    2       -7.493227   1.000000
    3       -5.922564   1.000000
    4       -5.302478   1.000000
    5       -4.217565   1.000000
    6       -4.160156   1.000000
    7       -4.047654   1.000000
    8       -3.809163   1.000000
    9       -3.762491   1.000000
   10       -3.730489   1.000000
   11       -3.622305   1.000000
   12       -3.527867   1.000000
   13       -3.477374   1.000000
   14       -3.305662   1.000000
   15       -3.281155   1.000000
   16       -3.193297   1.000000
   17       -3.161158   1.000000
   18       -3.099775   1.000000
   19       -2.907183   1.000000
   20       -2.759794   1.000000
   21       -2.729146   1.000000
   22       -2.498714   1.000000
   23       -2.275435   1.000000
   24       -0.792296   0.540374
   25        0.779374   0.000000
   26        4.281135   0.000000
 
  0.3000000E+00  0.1000000E+00  0.1262379E-14  0.6000000E-01
    1       -7.576083   1.000000
    2       -6.510272   1.000000
    3       -5.268880   1.000000
    4       -4.832624   1.000000
    5       -4.483554   1.000000
    6       -4.298994   1.000000
    7       -4.241842   1.000000
    8       -3.947123   1.000000
    9       -3.874728   1.000000
   10       -3.802987   1.000000
   11       -3.691369   1.000000
   12       -3.510276   1.000000
   13       -3.387946   1.000000
   14       -3.236940   1.000000
   15       -3.194650   1.000000
   16       -3.081317   1.000000
   17       -2.882562   1.000000
   18       -2.795811   1.000000
   19       -2.746601   1.000000
   20       -2.672064   1.000000
   21       -2.642988   1.000000
   22       -2.501544   1.000000
   23       -1.740218   1.000000
   24        0.274736   0.000000
   25        2.353053   0.000000
   26        5.286697   0.000000
 
  0.4000000E+00  0.1000000E+00  0.1262379E-14  0.6000000E-01
    1       -6.263660   1.000000
    2       -5.659857   1.000000
    3       -5.119020   1.000000
    4       -4.852657   1.000000
    5       -4.635811   1.000000
    6       -4.460128   1.000000
    7       -4.158009   1.000000
    8       -3.978808   1.000000
    9       -3.771392   1.000000
   10       -3.671329   1.000000
   11       -3.514502   1.000000
   12       -3.404595   1.000000
   13       -3.317613   1.000000
   14       -3.163575   1.000000
   15       -2.918946   1.000000
   16       -2.849074   1.000000
   17       -2.737231   1.000000
   18       -2.564805   1.000000
   19       -2.551921   1.000000
   20       -2.435206   1.000000
   21       -2.194380   1.000000
   22       -1.973907   1.000000
   23       -0.647713   0.178530
   24        1.723351   0.000000
   25        4.262145   0.000000
   26        5.791382   0.000000
 
  0.5000000E+00  0.1000000E+00  0.1262379E-14  0.6000000E-01
    1       -5.553058   1.000000
    2       -5.406805   1.000000
    3       -5.052765   1.000000
    4       -4.989309   1.000000
    5       -4.844755   1.000000
    6       -4.586579   1.000000
    7       -4.134679   1.000000
    8       -3.818534   1.000000
    9       -3.782412   1.000000
   10       -3.648451   1.000000
   11       -3.501876   1.000000
   12       -3.197709   1.000000
   13       -2.952317   1.000000
   14       -2.853641   1.000000
   15       -2.783443   1.000000
   16       -2.604975   1.000000
   17       -2.552429   1.000000
   18       -2.515021   1.000000
   19       -2.437060   1.000000
   20       -2.361054   1.000000
   21       -1.017057   0.954551
   22       -0.371396   0.002021
   23        0.829229   0.000000
   24        1.878912   0.000000
   25        3.704103   0.000000
   26        4.599674   0.000000
 
  0.4000000E+00  0.2000000E+00  0.1262379E-14  0.3000000E-01
    1       -6.386601   1.000000
    2       -5.646943   1.000000
    3       -4.994535   1.000000
    4       -4.584701   1.000000
    5       -4.555331   1.000000
    6       -4.338097   1.000000
    7       -4.240094   1.000000
    8       -4.055547   1.000000
    9       -3.910019   1.000000
   10       -3.893863   1.000000
   11       -3.852573   1.000000
   12       -3.488466   1.000000
   13       -3.480489   1.000000
   14       -3.233176   1.000000
   15       -3.068651   1.000000
   16       -2.911919   1.000000
   17       -2.841720   1.000000
   18       -2.581589   1.000000
   19       -2.534543   1.000000
   20       -2.452115   1.000000
   21       -2.124692   1.000000
   22       -1.921939   1.000000
   23       -0.700002   0.290732
   24        1.592483   0.000000
   25        4.030069   0.000000
   26        6.543621   0.000000
 
  0.5000000E+00  0.2000000E+00  0.1262379E-14  0.6000000E-01
    1       -5.396886   1.000000
    2       -5.183067   1.000000
    3       -4.941804   1.000000
    4       -4.749712   1.000000
    5       -4.549821   1.000000
    6       -4.397649   1.000000
    7       -4.292832   1.000000
    8       -4.036059   1.000000
    9       -3.958967   1.000000
   10       -3.636572   1.000000
   11       -3.564366   1.000000
   12       -3.513729   1.000000
   13       -3.445703   1.000000
   14       -3.192328   1.000000
   15       -2.927626   1.000000
   16       -2.876120   1.000000
   17       -2.800736   1.000000
   18       -2.550999   1.000000
   19       -2.442853   1.000000
   20       -2.367883   1.000000
   21       -1.010004   0.949581
   22       -0.394916   0.003379
   23        1.078454   0.000000
   24        3.244477   0.000000
   25        4.729330   0.000000
   26        5.656685   0.000000
 
 -0.4000000E+00  0.2000000E+00  0.1262379E-14  0.3000000E-01
    1       -5.154074   1.000000
    2       -5.131868   1.000000
    3       -4.825351   1.000000
    4       -4.759803   1.000000
    5       -4.654938   1.000000
    6       -4.438315   1.000000
    7       -4.342412   1.000000
    8       -3.949648   1.000000
    9       -3.927787   1.000000
   10       -3.669762   1.000000
   11       -3.592803   1.000000
   12       -3.313101   1.000000
   13       -3.266412   1.000000
   14       -3.198224   1.000000
   15       -2.906271   1.000000
   16       -2.760511   1.000000
   17       -2.633446   1.000000
   18       -2.540198   1.000000
   19       -2.516511   1.000000
   20       -2.427356   1.000000
   21        0.732622   0.000000
   22        1.179606   0.000000
   23        1.740179   0.000000
   24        2.295782   0.000000
   25        3.955926   0.000000
   26        4.841002   0.000000
 
 -0.4000000E+00  0.3000000E+00  0.1262379E-14  0.3000000E-01
    1       -4.904626   1.000000
    2       -4.851913   1.000000
    3       -4.792591   1.000000
    4       -4.622921   1.000000
    5       -4.542030   1.000000
    6       -4.499971   1.000000
    7       -4.353333   1.000000
    8       -4.032410   1.000000
    9       -3.976602   1.000000
   10       -3.653879   1.000000
   11       -3.581711   1.000000
   12       -3.577337   1.000000
   13       -3.564572   1.000000
   14       -3.137346   1.000000
   15       -2.962439   1.000000
   16       -2.943903   1.000000
   17       -2.708128   1.000000
   18       -2.559895   1.000000
   19       -2.520134   1.000000
   20       -2.461861   1.000000
   21        0.969380   0.000000
   22        1.852717   0.000000
   23        3.200421   0.000000
   24        3.842920   0.000000
   25        3.927762   0.000000
   26        4.903379   0.000000
 
  0.3742002E-15  0.3742002E-15  0.5000000E+00  0.5000000E-02
    1       -9.626830   1.000000
    2       -8.363846   1.000000
    3       -6.686018   1.000000
    4       -5.877215   1.000000
    5       -3.860246   1.000000
    6       -3.837182   1.000000
    7       -3.788857   1.000000
    8       -3.788568   1.000000
    9       -3.760619   1.000000
   10       -3.760357   1.000000
   11       -3.596948   1.000000
   12       -3.596649   1.000000
   13       -3.562994   1.000000
   14       -3.548778   1.000000
   15       -3.548462   1.000000
   16       -3.011473   1.000000
   17       -3.011375   1.000000
   18       -2.906105   1.000000
   19       -2.906074   1.000000
   20       -2.628095   1.000000
   21       -2.628051   1.000000
   22       -2.464669   1.000000
   23       -2.464597   1.000000
   24       -2.003151   1.000000
   25       -0.933247   0.863908
   26        3.141074   0.000000
 
  0.1000000E+00  0.3784579E-15  0.5000000E+00  0.3000000E-01
    1       -9.313347   1.000000
    2       -8.064238   1.000000
    3       -6.414044   1.000000
    4       -5.668401   1.000000
    5       -4.014343   1.000000
    6       -3.973496   1.000000
    7       -3.885993   1.000000
    8       -3.704502   1.000000
    9       -3.692283   1.000000
   10       -3.684873   1.000000
   11       -3.669709   1.000000
   12       -3.646509   1.000000
   13       -3.527374   1.000000
   14       -3.502807   1.000000
   15       -3.452636   1.000000
   16       -3.075880   1.000000
   17       -3.062273   1.000000
   18       -2.968735   1.000000
   19       -2.891161   1.000000
   20       -2.855784   1.000000
   21       -2.631117   1.000000
   22       -2.582518   1.000000
   23       -2.461552   1.000000
   24       -1.467364   0.999999
   25       -0.230323   0.000054
   26        3.414199   0.000000
 
  0.2000000E+00  0.3776408E-15  0.5000000E+00  0.3000000E-01
    1       -8.411320   1.000000
    2       -7.229188   1.000000
    3       -5.726364   1.000000
    4       -5.169247   1.000000
    5       -4.360336   1.000000
    6       -4.154399   1.000000
    7       -4.114023   1.000000
    8       -3.802124   1.000000
    9       -3.771577   1.000000
   10       -3.721756   1.000000
   11       -3.587074   1.000000
   12       -3.499556   1.000000
   13       -3.409179   1.000000
   14       -3.337416   1.000000
   15       -3.290859   1.000000
   16       -3.188329   1.000000
   17       -3.162302   1.000000
   18       -3.029201   1.000000
   19       -2.896590   1.000000
   20       -2.861670   1.000000
   21       -2.634085   1.000000
   22       -2.445781   1.000000
   23       -2.191561   1.000000
   24       -0.517296   0.032652
   25        1.206056   0.000000
   26        4.228687   0.000000
 
  0.3000000E+00  0.3689191E-15  0.5000000E+00  0.3000000E-01
    1       -7.096232   1.000000
    2       -6.178005   1.000000
    3       -5.241170   1.000000
    4       -4.871786   1.000000
    5       -4.645915   1.000000
    6       -4.369554   1.000000
    7       -4.139943   1.000000
    8       -3.929314   1.000000
    9       -3.680932   1.000000
   10       -3.626621   1.000000
   11       -3.518476   1.000000
   12       -3.438229   1.000000
   13       -3.334097   1.000000
   14       -3.259151   1.000000
   15       -3.004824   1.000000
   16       -2.919199   1.000000
   17       -2.835449   1.000000
   18       -2.729625   1.000000
   19       -2.718019   1.000000
   20       -2.710509   1.000000
   21       -2.615022   1.000000
   22       -2.428904   1.000000
   23       -1.518133   1.000000
   24        0.728911   0.000000
   25        3.024319   0.000000
   26        5.548876   0.000000
 
  0.4000000E+00  0.3903587E-15  0.5000000E+00  0.3000000E-01
    1       -5.946725   1.000000
    2       -5.598712   1.000000
    3       -5.212050   1.000000
    4       -5.005597   1.000000
    5       -4.850469   1.000000
    6       -4.577963   1.000000
    7       -4.055232   1.000000
    8       -3.805201   1.000000
    9       -3.707853   1.000000
   10       -3.701612   1.000000
   11       -3.361842   1.000000
   12       -3.275299   1.000000
   13       -2.889734   1.000000
   14       -2.800725   1.000000
   15       -2.608393   1.000000
   16       -2.568285   1.000000
   17       -2.557587   1.000000
   18       -2.458553   1.000000
   19       -2.421330   1.000000
   20       -2.369780   1.000000
   21       -2.313749   1.000000
   22       -1.765054   1.000000
   23       -0.257100   0.000115
   24        2.010826   0.000000
   25        4.116500   0.000000
   26        4.854082   0.000000
 
  0.5000000E+00  0.4489755E-15  0.5000000E+00  0.1500000E-01
    1       -5.628453   1.000000
    2       -5.500162   1.000000
    3       -5.109115   1.000000
    4       -5.070043   1.000000
    5       -5.027344   1.000000
    6       -4.656599   1.000000
    7       -4.062900   1.000000
    8       -3.853253   1.000000
    9       -3.742846   1.000000
   10       -3.549071   1.000000
   11       -3.287339   1.000000
   12       -3.239918   1.000000
   13       -2.776434   1.000000
   14       -2.704465   1.000000
   15       -2.511550   1.000000
   16       -2.510008   1.000000
   17       -2.449124   1.000000
   18       -2.387223   1.000000
   19       -2.299353   1.000000
   20       -2.284301   1.000000
   21       -1.029253   0.962208
   22       -0.076371   0.000000
   23        0.489944   0.000000
   24        0.755913   0.000000
   25        3.411238   0.000000
   26        4.225016   0.000000
 
  0.2000000E+00  0.1000000E+00  0.5000000E+00  0.3000000E-01
    1       -8.703956   1.000000
    2       -7.493242   1.000000
    3       -5.922832   1.000000
    4       -5.302980   1.000000
    5       -4.219652   1.000000
    6       -4.161606   1.000000
    7       -4.049229   1.000000
    8       -3.810649   1.000000
    9       -3.764311   1.000000
   10       -3.731151   1.000000
   11       -3.622107   1.000000
   12       -3.528576   1.000000
   13       -3.478356   1.000000
   14       -3.307512   1.000000
   15       -3.282143   1.000000
   16       -3.194959   1.000000
   17       -3.163433   1.000000
   18       -3.100067   1.000000
   19       -2.907170   1.000000
   20       -2.760395   1.000000
   21       -2.729090   1.000000
   22       -2.500012   1.000000
   23       -2.276543   1.000000
   24       -0.793434   0.543565
   25        0.780482   0.000000
   26        3.958465   0.000000
 
  0.3000000E+00  0.1000000E+00  0.5000000E+00  0.6000000E-01
    1       -7.576079   1.000000
    2       -6.510283   1.000000
    3       -5.268870   1.000000
    4       -4.831565   1.000000
    5       -4.482911   1.000000
    6       -4.298037   1.000000
    7       -4.240788   1.000000
    8       -3.946053   1.000000
    9       -3.873810   1.000000
   10       -3.802668   1.000000
   11       -3.690459   1.000000
   12       -3.510694   1.000000
   13       -3.386998   1.000000
   14       -3.235038   1.000000
   15       -3.192966   1.000000
   16       -3.079582   1.000000
   17       -2.881938   1.000000
   18       -2.794490   1.000000
   19       -2.746884   1.000000
   20       -2.671501   1.000000
   21       -2.641828   1.000000
   22       -2.500138   1.000000
   23       -1.740112   1.000000
   24        0.275080   0.000000
   25        2.355480   0.000000
   26        5.042326   0.000000
 
  0.4000000E+00  0.1000000E+00  0.5000000E+00  0.6000000E-01
    1       -6.263584   1.000000
    2       -5.660008   1.000000
    3       -5.118905   1.000000
    4       -4.852167   1.000000
    5       -4.635724   1.000000
    6       -4.460299   1.000000
    7       -4.158322   1.000000
    8       -3.978957   1.000000
    9       -3.771599   1.000000
   10       -3.671209   1.000000
   11       -3.513886   1.000000
   12       -3.403963   1.000000
   13       -3.317152   1.000000
   14       -3.161897   1.000000
   15       -2.919517   1.000000
   16       -2.848912   1.000000
   17       -2.736196   1.000000
   18       -2.564183   1.000000
   19       -2.550731   1.000000
   20       -2.434651   1.000000
   21       -2.194037   1.000000
   22       -1.974313   1.000000
   23       -0.647532   0.178195
   24        1.723674   0.000000
   25        4.264738   0.000000
   26        5.790938   0.000000
 
  0.5000000E+00  0.1000000E+00  0.5000000E+00  0.6000000E-01
    1       -5.553083   1.000000
    2       -5.406341   1.000000
    3       -5.052440   1.000000
    4       -4.987203   1.000000
    5       -4.843916   1.000000
    6       -4.585963   1.000000
    7       -4.134098   1.000000
    8       -3.817759   1.000000
    9       -3.783177   1.000000
   10       -3.648212   1.000000
   11       -3.502011   1.000000
   12       -3.199146   1.000000
   13       -2.952280   1.000000
   14       -2.854227   1.000000
   15       -2.783561   1.000000
   16       -2.605130   1.000000
   17       -2.552347   1.000000
   18       -2.514135   1.000000
   19       -2.436840   1.000000
   20       -2.359958   1.000000
   21       -1.016695   0.954305
   22       -0.371219   0.002013
   23        0.828991   0.000000
   24        1.878792   0.000000
   25        3.704071   0.000000
   26        4.599523   0.000000
 
  0.4000000E+00  0.2000000E+00  0.5000000E+00  0.3000000E-01
    1       -6.386700   1.000000
    2       -5.647261   1.000000
    3       -4.994957   1.000000
    4       -4.585473   1.000000
    5       -4.556454   1.000000
    6       -4.337977   1.000000
    7       -4.241082   1.000000
    8       -4.055471   1.000000
    9       -3.911632   1.000000
   10       -3.895162   1.000000
   11       -3.853861   1.000000
   12       -3.490451   1.000000
   13       -3.480779   1.000000
   14       -3.236495   1.000000
   15       -3.070771   1.000000
   16       -2.915676   1.000000
   17       -2.844185   1.000000
   18       -2.584335   1.000000
   19       -2.534712   1.000000
   20       -2.451938   1.000000
   21       -2.124554   1.000000
   22       -1.923179   1.000000
   23       -0.699882   0.290442
   24        1.592742   0.000000
   25        4.032059   0.000000
   26        6.378760   0.000000
 
  0.5000000E+00  0.2000000E+00  0.5000000E+00  0.6000000E-01
    1       -5.397316   1.000000
    2       -5.183574   1.000000
    3       -4.941856   1.000000
    4       -4.749692   1.000000
    5       -4.549897   1.000000
    6       -4.398488   1.000000
    7       -4.293869   1.000000
    8       -4.037165   1.000000
    9       -3.958993   1.000000
   10       -3.636998   1.000000
   11       -3.565665   1.000000
   12       -3.514607   1.000000
   13       -3.446244   1.000000
   14       -3.193451   1.000000
   15       -2.928539   1.000000
   16       -2.876826   1.000000
   17       -2.801362   1.000000
   18       -2.553447   1.000000
   19       -2.443945   1.000000
   20       -2.367254   1.000000
   21       -1.010813   0.950172
   22       -0.394888   0.003377
   23        1.078502   0.000000
   24        3.244601   0.000000
   25        4.728953   0.000000
   26        5.657204   0.000000
 
 -0.4000000E+00  0.2000000E+00  0.5000000E+00  0.3000000E-01
    1       -5.154201   1.000000
    2       -5.131757   1.000000
    3       -4.825241   1.000000
    4       -4.759668   1.000000
    5       -4.654445   1.000000
    6       -4.437999   1.000000
    7       -4.342475   1.000000
    8       -3.948990   1.000000
    9       -3.927813   1.000000
   10       -3.668652   1.000000
   11       -3.594744   1.000000
   12       -3.314582   1.000000
   13       -3.266979   1.000000
   14       -3.198184   1.000000
   15       -2.906971   1.000000
   16       -2.760544   1.000000
   17       -2.632331   1.000000
   18       -2.540468   1.000000
   19       -2.515486   1.000000
   20       -2.426686   1.000000
   21        0.731978   0.000000
   22        1.179679   0.000000
   23        1.740557   0.000000
   24        2.295976   0.000000
   25        3.955685   0.000000
   26        4.841812   0.000000
 
 -0.4000000E+00  0.3000000E+00  0.5000000E+00  0.3000000E-01
    1       -4.904955   1.000000
    2       -4.852251   1.000000
    3       -4.792508   1.000000
    4       -4.623148   1.000000
    5       -4.541443   1.000000
    6       -4.500868   1.000000
    7       -4.352918   1.000000
    8       -4.033146   1.000000
    9       -3.976757   1.000000
   10       -3.654957   1.000000
   11       -3.582889   1.000000
   12       -3.576638   1.000000
   13       -3.564503   1.000000
   14       -3.139504   1.000000
   15       -2.963977   1.000000
   16       -2.940699   1.000000
   17       -2.704757   1.000000
   18       -2.562129   1.000000
   19       -2.520415   1.000000
   20       -2.460661   1.000000
   21        0.970242   0.000000
   22        1.852490   0.000000
   23        3.200392   0.000000
   24        3.843100   0.000000
   25        3.928271   0.000000
   26        4.903044   0.000000
