 vasp.5.4.4.18Apr17-6-g9f103f2a35 (build Jul 15 2019 14:02:39) complex          
  
 executed on                 TEST date 2024.10.16  19:02:23
 running on    4 total cores
 distrk:  each k-point on    4 cores,    1 groups
 distr:  one band on NCORES_PER_BAND=   2 cores,    2 groups


--------------------------------------------------------------------------------------------------------


 INCAR:
 POTCAR:   PAW_PBE Cu 05Jan2001                   
 POTCAR:   PAW_PBE Cu 05Jan2001                   
   VRHFIN =Cu: d10 p1                                                           
   LEXCH  = PE                                                                  
   EATOM  =  1390.9800 eV,  102.2341 Ry                                         
                                                                                
   TITEL  = PAW_PBE Cu 05Jan2001                                                
   LULTRA =        F    use ultrasoft PP ?                                      
   IUNSCR =        1    unscreen: 0-lin 1-nonlin 2-no                           
   RPACOR =    2.000    partial core radius                                     
   POMASS =   63.546; ZVAL   =   11.000    mass and valenz                      
   RCORE  =    2.300    outmost cutoff radius                                   
   RWIGS  =    2.480; RWIGS  =    1.312    wigner-seitz radius (au A)           
   ENMAX  =  273.214; ENMIN  =  204.910 eV                                      
   RCLOC  =    1.712    cutoff for local pot                                    
   LCOR   =        T    correct aug charges                                     
   LPAW   =        T    paw PP                                                  
   EAUG   =  516.456                                                            
   DEXC   =    -.008                                                            
   RMAX   =    2.789    core radius for proj-oper                               
   RAUG   =    1.300    factor for augmentation sphere                          
   RDEP   =    2.302    radius for radial grids                                 
   QCUT   =   -4.481; QGAM   =    8.962    optimization parameters              
                                                                                
   Description                                                                  
     l     E      TYP  RCUT    TYP  RCUT                                        
     2   .000     23  2.300                                                     
     2   .000     23  2.300                                                     
     0   .000     23  2.300                                                     
     0   .000     23  2.300                                                     
     1  -.200     23  2.300                                                     
     1   .000     23  2.300                                                     
     3   .000      7   .000                                                     
  local pseudopotential read in
  partial core-charges read in
  atomic valenz-charges read in
  non local Contribution for L=           2  read in
    real space projection operators read in
  non local Contribution for L=           2  read in
    real space projection operators read in
  non local Contribution for L=           0  read in
    real space projection operators read in
  non local Contribution for L=           0  read in
    real space projection operators read in
  non local Contribution for L=           1  read in
    real space projection operators read in
  non local Contribution for L=           1  read in
    real space projection operators read in
    PAW grid and wavefunctions read in
 
   number of l-projection  operators is LMAX  =           6
   number of lm-projection operators is LMMAX =          18
 

 ----------------------------------------------------------------------------- 
|                                                                             |
|  ADVICE TO THIS USER RUNNING 'VASP/VAMP'   (HEAR YOUR MASTER'S VOICE ...):  |
|                                                                             |
|      You have a (more or less) 'small supercell' and for smaller cells      |
|      it is recommended  to use the reciprocal-space projection scheme!      |
|      The real space optimization is not  efficient for small cells and it   |
|      is also less accurate ...                                              |
|      Therefore set LREAL=.FALSE. in the  INCAR file                         |
|                                                                             |
 ----------------------------------------------------------------------------- 

 Optimization of the real space projectors (new method)

 maximal supplied QI-value         = 16.25
 optimisation between [QCUT,QGAM] = [  7.96, 16.09] = [ 17.76, 72.49] Ry 
 Optimized for a Real-space Cutoff    1.70 Angstroem

   l    n(q)    QCUT    max X(q) W(low)/X(q) W(high)/X(q)  e(spline) 
   2      7     7.963     4.977    0.65E-04    0.90E-04    0.59E-07
   2      7     7.963    13.467    0.48E-03    0.73E-03    0.12E-06
   0      8     7.963    13.303    0.22E-04    0.12E-04    0.51E-08
   0      8     7.963    44.613    0.10E-03    0.16E-03    0.47E-07
   1      8     7.963     5.276    0.66E-04    0.10E-04    0.22E-07
   1      8     7.963     7.322    0.38E-03    0.18E-03    0.17E-06
 PAW_PBE Cu 05Jan2001                   :
 energy of atom  1       EATOM=-1390.9800
 kinetic energy error for atom=    0.0930 (will be added to EATOM!!)
 
 
 POSCAR: Cu                                      
  positions in direct lattice
  No initial velocities read in
 exchange correlation table for  LEXCH =        8
   RHO(1)=    0.500       N(1)  =     2000
   RHO(2)=  100.500       N(2)  =     4000
 


--------------------------------------------------------------------------------------------------------


 ion  position               nearest neighbor table
   1  0.000  0.000  0.328-   2 2.57   2 2.57   2 2.57
   2  0.333  0.333  0.443-   3 2.57   1 2.57   1 2.57   1 2.57   3 2.57   3 2.57
   3  0.667  0.667  0.557-   2 2.57   4 2.57   4 2.57   4 2.57   2 2.57   2 2.57
   4  0.000  0.000  0.672-   3 2.57   3 2.57   3 2.57
 
  LATTYP: Found a hexagonal cell.
 ALAT       =     2.5738686835
 C/A-ratio  =     7.1117322561
  
  Lattice vectors:
  
 A1 = (   1.2869343418,  -2.2290356659,   0.0000000000)
 A2 = (  -2.5738686835,   0.0000000000,   0.0000000000)
 A3 = (   0.0000000000,   0.0000000000, -18.3046649396)


Analysis of symmetry for initial positions (statically):
=====================================================================
 Subroutine PRICEL returns:
 Original cell was already a primitive cell.
 

 Routine SETGRP: Setting up the symmetry group for a 
 hexagonal supercell.


 Subroutine GETGRP returns: Found 12 space group operations
 (whereof 12 operations were pure point group operations)
 out of a pool of 24 trial point group operations.


The static configuration has the point symmetry D_3d.


Analysis of symmetry for dynamics (positions and initial velocities):
=====================================================================
 Subroutine PRICEL returns:
 Original cell was already a primitive cell.
 

 Routine SETGRP: Setting up the symmetry group for a 
 hexagonal supercell.


 Subroutine GETGRP returns: Found 12 space group operations
 (whereof 12 operations were pure point group operations)
 out of a pool of 24 trial point group operations.


The dynamic configuration has the point symmetry D_3d.


 Subroutine INISYM returns: Found 12 space group operations
 (whereof 12 operations are pure point group operations),
 and found     1 'primitive' translations

 
 
 KPOINTS: k-density: 4.0                          

Automatic generation of k-mesh.
Space group operators:
 irot       det(A)        alpha          n_x          n_y          n_z        tau_x        tau_y        tau_z
    1     1.000000     0.000000     1.000000     0.000000     0.000000     0.000000     0.000000     0.000000
    2    -1.000000     0.000000     1.000000     0.000000     0.000000     0.000000     0.000000     0.000000
    3     1.000000   120.000000     0.000000     0.000000     1.000000     0.000000     0.000000     0.000000
    4    -1.000000   120.000000     0.000000     0.000000     1.000000     0.000000     0.000000     0.000000
    5     1.000000   120.000000     0.000000     0.000000    -1.000000     0.000000     0.000000     0.000000
    6    -1.000000   120.000000     0.000000     0.000000    -1.000000     0.000000     0.000000     0.000000
    7     1.000000   180.000000     0.500000    -0.866025     0.000000     0.000000     0.000000     0.000000
    8    -1.000000   180.000000     0.500000    -0.866025     0.000000     0.000000     0.000000     0.000000
    9     1.000000   179.999999     1.000000     0.000000     0.000000     0.000000     0.000000     0.000000
   10    -1.000000   179.999999     1.000000     0.000000     0.000000     0.000000     0.000000     0.000000
   11     1.000000   180.000000    -0.500000    -0.866025     0.000000     0.000000     0.000000     0.000000
   12    -1.000000   180.000000    -0.500000    -0.866025     0.000000     0.000000     0.000000     0.000000
 
 Subroutine IBZKPT returns following result:
 ===========================================
 
 Found     28 irreducible k-points:
 
 Following reciprocal coordinates:
            Coordinates               Weight
  0.000000  0.000000  0.000000      1.000000
  0.100000  0.000000  0.000000      6.000000
  0.200000  0.000000  0.000000      6.000000
  0.300000  0.000000  0.000000      6.000000
  0.400000  0.000000  0.000000      6.000000
  0.500000  0.000000  0.000000      3.000000
  0.200000  0.100000  0.000000      6.000000
  0.300000  0.100000  0.000000     12.000000
  0.400000  0.100000  0.000000     12.000000
  0.500000  0.100000  0.000000     12.000000
  0.400000  0.200000  0.000000      6.000000
  0.500000  0.200000  0.000000     12.000000
 -0.400000  0.200000  0.000000      6.000000
 -0.400000  0.300000  0.000000      6.000000
  0.000000  0.000000  0.500000      1.000000
  0.100000  0.000000  0.500000      6.000000
  0.200000  0.000000  0.500000      6.000000
  0.300000  0.000000  0.500000      6.000000
  0.400000  0.000000  0.500000      6.000000
  0.500000  0.000000  0.500000      3.000000
  0.200000  0.100000  0.500000      6.000000
  0.300000  0.100000  0.500000     12.000000
  0.400000  0.100000  0.500000     12.000000
  0.500000  0.100000  0.500000     12.000000
  0.400000  0.200000  0.500000      6.000000
  0.500000  0.200000  0.500000     12.000000
 -0.400000  0.200000  0.500000      6.000000
 -0.400000  0.300000  0.500000      6.000000
 
 Following cartesian coordinates:
            Coordinates               Weight
  0.000000  0.000000  0.000000      1.000000
  0.038852 -0.022431  0.000000      6.000000
  0.077704 -0.044862  0.000000      6.000000
  0.116556 -0.067294  0.000000      6.000000
  0.155408 -0.089725  0.000000      6.000000
  0.194260 -0.112156  0.000000      3.000000
  0.077704  0.000000  0.000000      6.000000
  0.116556 -0.022431  0.000000     12.000000
  0.155408 -0.044862  0.000000     12.000000
  0.194260 -0.067294  0.000000     12.000000
  0.155408  0.000000  0.000000      6.000000
  0.194260 -0.022431  0.000000     12.000000
 -0.155408  0.179450  0.000000      6.000000
 -0.155408  0.224312  0.000000      6.000000
  0.000000  0.000000  0.027315      1.000000
  0.038852 -0.022431  0.027315      6.000000
  0.077704 -0.044862  0.027315      6.000000
  0.116556 -0.067294  0.027315      6.000000
  0.155408 -0.089725  0.027315      6.000000
  0.194260 -0.112156  0.027315      3.000000
  0.077704  0.000000  0.027315      6.000000
  0.116556 -0.022431  0.027315     12.000000
  0.155408 -0.044862  0.027315     12.000000
  0.194260 -0.067294  0.027315     12.000000
  0.155408  0.000000  0.027315      6.000000
  0.194260 -0.022431  0.027315     12.000000
 -0.155408  0.179450  0.027315      6.000000
 -0.155408  0.224312  0.027315      6.000000
 


--------------------------------------------------------------------------------------------------------




 Dimension of arrays:
   k-points           NKPTS =     28   k-points in BZ     NKDIM =     28   number of bands    NBANDS=     26
   number of dos      NEDOS =    301   number of ions     NIONS =      4
   non local maximal  LDIM  =      6   non local SUM 2l+1 LMDIM =     18
   total plane-waves  NPLWV =   7200
   max r-space proj   IRMAX =   1449   max aug-charges    IRDMAX=   2605
   dimension x,y,z NGX =    10 NGY =   10 NGZ =   72
   dimension x,y,z NGXF=    20 NGYF=   20 NGZF=  144
   support grid    NGXF=    20 NGYF=   20 NGZF=  144
   ions per type =               4
   NGX,Y,Z   is equivalent  to a cutoff of   6.46,  6.46,  6.54 a.u.
   NGXF,Y,Z  is equivalent  to a cutoff of  12.92, 12.92, 13.08 a.u.

 SYSTEM =  unknown system                          
 POSCAR =  Cu                                      

 Startparameter for this run:
   NWRITE =      2    write-flag & timer
   PREC   = normal    normal or accurate (medium, high low for compatibility)
   ISTART =      0    job   : 0-new  1-cont  2-samecut
   ICHARG =      2    charge: 1-file 2-atom 10-const
   ISPIN  =      1    spin polarized calculation?
   LNONCOLLINEAR =      F non collinear calculations
   LSORBIT =      F    spin-orbit coupling
   INIWAV =      1    electr: 0-lowe 1-rand  2-diag
   LASPH  =      F    aspherical Exc in radial PAW
   METAGGA=      F    non-selfconsistent MetaGGA calc.

 Electronic Relaxation 1
   ENCUT  =  250.0 eV  18.37 Ry    4.29 a.u.   3.32  3.32 23.60*2*pi/ulx,y,z
   ENINI  =  250.0     initial cutoff
   ENAUG  =  516.5 eV  augmentation charge cutoff
   NELM   =     60;   NELMIN=  4; NELMDL= -5     # of ELM steps 
   EDIFF  = 0.1E-04   stopping-criterion for ELM
   LREAL  =      T    real-space projection
   NLSPLINE    = F    spline interpolate recip. space projectors
   LCOMPAT=      F    compatible to vasp.4.4
   GGA_COMPAT  = T    GGA compatible to vasp.4.4-vasp.4.6
   LMAXPAW     = -100 max onsite density
   LMAXMIX     =    2 max onsite mixed and CHGCAR
   VOSKOWN=      0    Vosko Wilk Nusair interpolation
   ROPT   =   -0.00050
 Ionic relaxation
   EDIFFG = -.5E-01   stopping-criterion for IOM
   NSW    =     50    number of steps for IOM
   NBLOCK =      1;   KBLOCK =     50    inner block; outer block 
   IBRION =      1    ionic relax: 0-MD 1-quasi-New 2-CG
   NFREE  =      0    steps in history (QN), initial steepest desc. (CG)
   ISIF   =      2    stress and relaxation
   IWAVPR =     11    prediction:  0-non 1-charg 2-wave 3-comb
   ISYM   =      2    0-nonsym 1-usesym 2-fastsym
   LCORR  =      T    Harris-Foulkes like correction to forces

   POTIM  = 0.5000    time-step for ionic-motion
   TEIN   =    0.0    initial temperature
   TEBEG  =    0.0;   TEEND  =   0.0 temperature during run
   SMASS  =  -3.00    Nose mass-parameter (am)
   estimated Nose-frequenzy (Omega)   =  0.10E-29 period in steps =****** mass=  -0.151E-27a.u.
   SCALEE = 1.0000    scale energy and forces
   NPACO  =    256;   APACO  = 16.0  distance and # of slots for P.C.
   PSTRESS=    0.0 pullay stress

  Mass of Ions in am
   POMASS =  63.55
  Ionic Valenz
   ZVAL   =  11.00
  Atomic Wigner-Seitz radii
   RWIGS  =  -1.00
  virtual crystal weights 
   VCA    =   1.00
   NELECT =      44.0000    total number of electrons
   NUPDOWN=      -1.0000    fix difference up-down

 DOS related values:
   EMIN   =  10.00;   EMAX   =-10.00  energy-range for DOS
   EFERMI =   0.00
   ISMEAR =     0;   SIGMA  =   0.20  broadening in eV -4-tet -1-fermi 0-gaus

 Electronic relaxation 2 (details)
   IALGO  =     68    algorithm
   LDIAG  =      T    sub-space diagonalisation (order eigenvalues)
   LSUBROT=      F    optimize rotation matrix (better conditioning)
   TURBO    =      0    0=normal 1=particle mesh
   IRESTART =      0    0=no restart 2=restart with 2 vectors
   NREBOOT  =      0    no. of reboots
   NMIN     =      0    reboot dimension
   EREF     =   0.00    reference energy to select bands
   IMIX   =      4    mixing-type and parameters
     AMIX     =   0.40;   BMIX     =  1.00
     AMIX_MAG =   1.60;   BMIX_MAG =  1.00
     AMIN     =   0.10
     WC   =   100.;   INIMIX=   1;  MIXPRE=   1;  MAXMIX=  80

 Intra band minimization:
   WEIMIN = 0.0010     energy-eigenvalue tresh-hold
   EBREAK =  0.96E-07  absolut break condition
   DEPER  =   0.30     relativ break condition  

   TIME   =   0.40     timestep for ELM

  volume/ion in A,a.u.               =      26.25       177.17
  Fermi-wavevector in a.u.,A,eV,Ry     =   1.225003  2.314921 20.417359  1.500634
  Thomas-Fermi vector in A             =   2.360057
 
 Write flags
   LWAVE        =      F    write WAVECAR
   LDOWNSAMPLE  =      F    k-point downsampling of WAVECAR
   LCHARG       =      T    write CHGCAR
   LVTOT        =      F    write LOCPOT, total local potential
   LVHAR        =      F    write LOCPOT, Hartree potential only
   LELF         =      F    write electronic localiz. function (ELF)
   LORBIT       =      0    0 simple, 1 ext, 2 COOP (PROOUT), +10 PAW based schemes


 Dipole corrections
   LMONO  =      F    monopole corrections only (constant potential shift)
   LDIPOL =      F    correct potential (dipole corrections)
   IDIPOL =      0    1-x, 2-y, 3-z, 4-all directions 
   EPSILON=  1.0000000 bulk dielectric constant

 Exchange correlation treatment:
   GGA     =    --    GGA type
   LEXCH   =     8    internal setting for exchange type
   VOSKOWN=      0    Vosko Wilk Nusair interpolation
   LHFCALC =     F    Hartree Fock is set to
   LHFONE  =     F    Hartree Fock one center treatment
   AEXX    =    0.0000 exact exchange contribution

 Linear response parameters
   LEPSILON=     F    determine dielectric tensor
   LRPA    =     F    only Hartree local field effects (RPA)
   LNABLA  =     F    use nabla operator in PAW spheres
   LVEL    =     F    velocity operator in full k-point grid
   LINTERFAST=   F  fast interpolation
   KINTER  =     0    interpolate to denser k-point grid
   CSHIFT  =0.1000    complex shift for real part using Kramers Kronig
   OMEGAMAX=  -1.0    maximum frequency
   DEG_THRESHOLD= 0.2000000E-02 threshold for treating states as degnerate
   RTIME   =   -0.100 relaxation time in fs
  (WPLASMAI=    0.000 imaginary part of plasma frequency in eV, 0.658/RTIME)
   DFIELD  = 0.0000000 0.0000000 0.0000000 field for delta impulse in time
 
 Orbital magnetization related:
   ORBITALMAG=     F  switch on orbital magnetization
   LCHIMAG   =     F  perturbation theory with respect to B field
   DQ        =  0.001000  dq finite difference perturbation B field
   LLRAUG    =     F  two centre corrections for induced B field



--------------------------------------------------------------------------------------------------------


 quasi-Newton-method for relaxation of ions
 charge density and potential will be updated during run
 non-spin polarized calculation
 RMM-DIIS sequential band-by-band and
  variant of blocked Davidson during initial phase
 perform sub-space diagonalisation
    before iterative eigenvector-optimisation
 modified Broyden-mixing scheme, WC =      100.0
 initial mixing is a Kerker type mixing with AMIX =  0.4000 and BMIX =      1.0000
 Hartree-type preconditioning will be used
 using additional bands            4
 real space projection scheme for non local part
 use partial core corrections
 calculate Harris-corrections to forces 
   (improved forces if not selfconsistent)
 use gradient corrections 
 use of overlap-Matrix (Vanderbilt PP)
 Gauss-broadening in eV      SIGMA  =   0.20


--------------------------------------------------------------------------------------------------------


  energy-cutoff  :      250.00
  volume of cell :      105.02
      direct lattice vectors                 reciprocal lattice vectors
     2.573868684  0.000000000  0.000000000     0.388520209 -0.224312248  0.000000000
     1.286934342  2.229035666  0.000000000     0.000000000  0.448624495  0.000000000
     0.000000000  0.000000000 18.304664940     0.000000000  0.000000000  0.054630883

  length of vectors
     2.573868684  2.573868684 18.304664940     0.448624495  0.448624495  0.054630883


 
 k-points in units of 2pi/SCALE and weight: k-density: 4.0                          
   0.00000000  0.00000000  0.00000000       0.005
   0.03885202 -0.02243122  0.00000000       0.030
   0.07770404 -0.04486245  0.00000000       0.030
   0.11655606 -0.06729367  0.00000000       0.030
   0.15540808 -0.08972490  0.00000000       0.030
   0.19426010 -0.11215612  0.00000000       0.015
   0.07770404  0.00000000  0.00000000       0.030
   0.11655606 -0.02243122  0.00000000       0.060
   0.15540808 -0.04486245  0.00000000       0.060
   0.19426010 -0.06729367  0.00000000       0.060
   0.15540808  0.00000000  0.00000000       0.030
   0.19426010 -0.02243122  0.00000000       0.060
  -0.15540808  0.17944980  0.00000000       0.030
  -0.15540808  0.22431225  0.00000000       0.030
   0.00000000  0.00000000  0.02731544       0.005
   0.03885202 -0.02243122  0.02731544       0.030
   0.07770404 -0.04486245  0.02731544       0.030
   0.11655606 -0.06729367  0.02731544       0.030
   0.15540808 -0.08972490  0.02731544       0.030
   0.19426010 -0.11215612  0.02731544       0.015
   0.07770404  0.00000000  0.02731544       0.030
   0.11655606 -0.02243122  0.02731544       0.060
   0.15540808 -0.04486245  0.02731544       0.060
   0.19426010 -0.06729367  0.02731544       0.060
   0.15540808  0.00000000  0.02731544       0.030
   0.19426010 -0.02243122  0.02731544       0.060
  -0.15540808  0.17944980  0.02731544       0.030
  -0.15540808  0.22431225  0.02731544       0.030
 
 k-points in reciprocal lattice and weights: k-density: 4.0                          
   0.00000000  0.00000000  0.00000000       0.005
   0.10000000  0.00000000  0.00000000       0.030
   0.20000000  0.00000000  0.00000000       0.030
   0.30000000  0.00000000  0.00000000       0.030
   0.40000000  0.00000000  0.00000000       0.030
   0.50000000  0.00000000  0.00000000       0.015
   0.20000000  0.10000000  0.00000000       0.030
   0.30000000  0.10000000  0.00000000       0.060
   0.40000000  0.10000000  0.00000000       0.060
   0.50000000  0.10000000  0.00000000       0.060
   0.40000000  0.20000000  0.00000000       0.030
   0.50000000  0.20000000  0.00000000       0.060
  -0.40000000  0.20000000  0.00000000       0.030
  -0.40000000  0.30000000  0.00000000       0.030
   0.00000000  0.00000000  0.50000000       0.005
   0.10000000  0.00000000  0.50000000       0.030
   0.20000000  0.00000000  0.50000000       0.030
   0.30000000  0.00000000  0.50000000       0.030
   0.40000000  0.00000000  0.50000000       0.030
   0.50000000  0.00000000  0.50000000       0.015
   0.20000000  0.10000000  0.50000000       0.030
   0.30000000  0.10000000  0.50000000       0.060
   0.40000000  0.10000000  0.50000000       0.060
   0.50000000  0.10000000  0.50000000       0.060
   0.40000000  0.20000000  0.50000000       0.030
   0.50000000  0.20000000  0.50000000       0.060
  -0.40000000  0.20000000  0.50000000       0.030
  -0.40000000  0.30000000  0.50000000       0.030
 
 position of ions in fractional coordinates (direct lattice) 
   0.00000000  0.00000000  0.32778530
   0.33333333  0.33333333  0.44259510
   0.66666667  0.66666667  0.55740490
   0.00000000  0.00000000  0.67221470
 
 position of ions in cartesian coordinates  (Angst):
   0.00000000  0.00000000  6.00000000
   1.28693434  0.74301189  8.10155498
   2.57386868  1.48602378 10.20310996
   0.00000000  0.00000000 12.30466494
 


--------------------------------------------------------------------------------------------------------


 k-point  1 :   0.0000 0.0000 0.0000  plane waves:     965
 k-point  2 :   0.1000 0.0000 0.0000  plane waves:     957
 k-point  3 :   0.2000 0.0000 0.0000  plane waves:     952
 k-point  4 :   0.3000 0.0000 0.0000  plane waves:     932
 k-point  5 :   0.4000 0.0000 0.0000  plane waves:     948
 k-point  6 :   0.5000 0.0000 0.0000  plane waves:     950
 k-point  7 :   0.2000 0.1000 0.0000  plane waves:     959
 k-point  8 :   0.3000 0.1000 0.0000  plane waves:     949
 k-point  9 :   0.4000 0.1000 0.0000  plane waves:     942
 k-point 10 :   0.5000 0.1000 0.0000  plane waves:     939
 k-point 11 :   0.4000 0.2000 0.0000  plane waves:     931
 k-point 12 :   0.5000 0.2000 0.0000  plane waves:     935
 k-point 13 :  -0.4000 0.2000 0.0000  plane waves:     936
 k-point 14 :  -0.4000 0.3000 0.0000  plane waves:     933
 k-point 15 :   0.0000 0.0000 0.5000  plane waves:     960
 k-point 16 :   0.1000 0.0000 0.5000  plane waves:     964
 k-point 17 :   0.2000 0.0000 0.5000  plane waves:     956
 k-point 18 :   0.3000 0.0000 0.5000  plane waves:     936
 k-point 19 :   0.4000 0.0000 0.5000  plane waves:     940
 k-point 20 :   0.5000 0.0000 0.5000  plane waves:     944
 k-point 21 :   0.2000 0.1000 0.5000  plane waves:     968
 k-point 22 :   0.3000 0.1000 0.5000  plane waves:     942
 k-point 23 :   0.4000 0.1000 0.5000  plane waves:     940
 k-point 24 :   0.5000 0.1000 0.5000  plane waves:     936
 k-point 25 :   0.4000 0.2000 0.5000  plane waves:     940
 k-point 26 :   0.5000 0.2000 0.5000  plane waves:     940
 k-point 27 :  -0.4000 0.2000 0.5000  plane waves:     936
 k-point 28 :  -0.4000 0.3000 0.5000  plane waves:     934

 maximum and minimum number of plane-waves per node :       489      461

 maximum number of plane-waves:       968
 maximum index in each direction: 
   IXMAX=    3   IYMAX=    3   IZMAX=   23
   IXMIN=   -3   IYMIN=   -3   IZMIN=  -24


 real space projection operators:
  total allocation   :        763.31 KBytes
  max/ min on nodes  :        382.50        380.81


 parallel 3D FFT for wavefunctions:
    minimum data exchange during FFTs selected (reduces bandwidth)
 parallel 3D FFT for charge:
    minimum data exchange during FFTs selected (reduces bandwidth)


 total amount of memory used by VASP MPI-rank0    35042. kBytes
=======================================================================

   base      :      30000. kBytes
   nonlr-proj:        565. kBytes
   fftplans  :        599. kBytes
   grid      :        842. kBytes
   one-center:         31. kBytes
   wavefun   :       3005. kBytes
 
     INWAV:  cpu time    0.0001: real time    0.0004
 Broyden mixing: mesh for mixing (old mesh)
   NGX =  7   NGY =  7   NGZ = 47
  (NGX  = 20   NGY  = 20   NGZ  =144)
  gives a total of   2303 points

 initial charge density was supplied:
 charge density of overlapping atoms calculated
 number of electron      44.0000000 magnetization 
 keeping initial charge density in first step


--------------------------------------------------------------------------------------------------------


 Maximum index for non-local projection operator          684
 Maximum index for augmentation-charges          587 (set IRDMAX)


--------------------------------------------------------------------------------------------------------


 First call to EWALD:  gamma=   0.376
 Maximum number of real-space cells 5x 5x 1
 Maximum number of reciprocal cells 2x 2x 9

    FEWALD:  cpu time    0.0014: real time    0.0014


--------------------------------------- Iteration      1(   1)  ---------------------------------------


    POTLOK:  cpu time    0.0133: real time    0.0431
    SETDIJ:  cpu time    0.0029: real time    0.0121
     EDDAV:  cpu time    0.5055: real time    0.5846
       DOS:  cpu time    0.0025: real time    0.0048
    --------------------------------------------
      LOOP:  cpu time    0.5241: real time    0.6446

 eigenvalue-minimisations  :  1464
 total energy-change (2. order) : 0.2007688E+03  (-0.1447558E+04)
 number of electron      44.0000000 magnetization 
 augmentation part       44.0000000 magnetization 

 Free energy of the ion-electron system (eV)
  ---------------------------------------------------
  alpha Z        PSCENC =       194.65170275
  Ewald energy   TEWEN  =      9957.40185099
  -Hartree energ DENC   =    -15219.75389242
  -exchange      EXHF   =         0.00000000
  -V(xc)+E(xc)   XCENC  =       174.42363897
  PAW double counting   =      4328.20916945    -4904.30802700
  entropy T*S    EENTRO =        -0.04660682
  eigenvalues    EBANDS =       106.64293677
  atomic energy  EATOM  =      5563.54799995
  Solvation  Ediel_sol  =         0.00000000
  ---------------------------------------------------
  free energy    TOTEN  =       200.76877264 eV

  energy without entropy =      200.81537945  energy(sigma->0) =      200.79207604


--------------------------------------------------------------------------------------------------------




--------------------------------------- Iteration      1(   2)  ---------------------------------------


     EDDAV:  cpu time    0.4793: real time    0.4849
       DOS:  cpu time    0.0027: real time    0.0027
    --------------------------------------------
      LOOP:  cpu time    0.4819: real time    0.4876

 eigenvalue-minimisations  :  1466
 total energy-change (2. order) :-0.2073713E+03  (-0.2025508E+03)
 number of electron      44.0000000 magnetization 
 augmentation part       44.0000000 magnetization 

 Free energy of the ion-electron system (eV)
  ---------------------------------------------------
  alpha Z        PSCENC =       194.65170275
  Ewald energy   TEWEN  =      9957.40185099
  -Hartree energ DENC   =    -15219.75389242
  -exchange      EXHF   =         0.00000000
  -V(xc)+E(xc)   XCENC  =       174.42363897
  PAW double counting   =      4328.20916945    -4904.30802700
  entropy T*S    EENTRO =        -0.04458189
  eigenvalues    EBANDS =      -100.73040981
  atomic energy  EATOM  =      5563.54799995
  Solvation  Ediel_sol  =         0.00000000
  ---------------------------------------------------
  free energy    TOTEN  =        -6.60254903 eV

  energy without entropy =       -6.55796713  energy(sigma->0) =       -6.58025808


--------------------------------------------------------------------------------------------------------




--------------------------------------- Iteration      1(   3)  ---------------------------------------


     EDDAV:  cpu time    0.4877: real time    0.4918
       DOS:  cpu time    0.0027: real time    0.0027
    --------------------------------------------
      LOOP:  cpu time    0.4904: real time    0.4945

 eigenvalue-minimisations  :  1510
 total energy-change (2. order) :-0.1032373E+02  (-0.9959666E+01)
 number of electron      44.0000000 magnetization 
 augmentation part       44.0000000 magnetization 

 Free energy of the ion-electron system (eV)
  ---------------------------------------------------
  alpha Z        PSCENC =       194.65170275
  Ewald energy   TEWEN  =      9957.40185099
  -Hartree energ DENC   =    -15219.75389242
  -exchange      EXHF   =         0.00000000
  -V(xc)+E(xc)   XCENC  =       174.42363897
  PAW double counting   =      4328.20916945    -4904.30802700
  entropy T*S    EENTRO =        -0.06059198
  eigenvalues    EBANDS =      -111.03812530
  atomic energy  EATOM  =      5563.54799995
  Solvation  Ediel_sol  =         0.00000000
  ---------------------------------------------------
  free energy    TOTEN  =       -16.92627460 eV

  energy without entropy =      -16.86568262  energy(sigma->0) =      -16.89597861


--------------------------------------------------------------------------------------------------------




--------------------------------------- Iteration      1(   4)  ---------------------------------------


     EDDAV:  cpu time    0.4995: real time    0.5039
       DOS:  cpu time    0.0028: real time    0.0028
    --------------------------------------------
      LOOP:  cpu time    0.5024: real time    0.5067

 eigenvalue-minimisations  :  1562
 total energy-change (2. order) :-0.1266706E+00  (-0.1248503E+00)
 number of electron      44.0000000 magnetization 
 augmentation part       44.0000000 magnetization 

 Free energy of the ion-electron system (eV)
  ---------------------------------------------------
  alpha Z        PSCENC =       194.65170275
  Ewald energy   TEWEN  =      9957.40185099
  -Hartree energ DENC   =    -15219.75389242
  -exchange      EXHF   =         0.00000000
  -V(xc)+E(xc)   XCENC  =       174.42363897
  PAW double counting   =      4328.20916945    -4904.30802700
  entropy T*S    EENTRO =        -0.06275676
  eigenvalues    EBANDS =      -111.16263112
  atomic energy  EATOM  =      5563.54799995
  Solvation  Ediel_sol  =         0.00000000
  ---------------------------------------------------
  free energy    TOTEN  =       -17.05294520 eV

  energy without entropy =      -16.99018844  energy(sigma->0) =      -17.02156682


--------------------------------------------------------------------------------------------------------




--------------------------------------- Iteration      1(   5)  ---------------------------------------


     EDDAV:  cpu time    0.5109: real time    0.5164
       DOS:  cpu time    0.0029: real time    0.0029
    CHARGE:  cpu time    0.0281: real time    0.0282
    MIXING:  cpu time    0.0005: real time    0.0010
    --------------------------------------------
      LOOP:  cpu time    0.5424: real time    0.5485

 eigenvalue-minimisations  :  1600
 total energy-change (2. order) :-0.8118123E-03  (-0.8117209E-03)
 number of electron      43.9999923 magnetization 
 augmentation part       26.8078715 magnetization 

 Broyden mixing:
  rms(total) = 0.13691E+01    rms(broyden)= 0.13689E+01
  rms(prec ) = 0.14930E+01
  weight for this iteration     100.00

 Free energy of the ion-electron system (eV)
  ---------------------------------------------------
  alpha Z        PSCENC =       194.65170275
  Ewald energy   TEWEN  =      9957.40185099
  -Hartree energ DENC   =    -15219.75389242
  -exchange      EXHF   =         0.00000000
  -V(xc)+E(xc)   XCENC  =       174.42363897
  PAW double counting   =      4328.20916945    -4904.30802700
  entropy T*S    EENTRO =        -0.06276436
  eigenvalues    EBANDS =      -111.16343533
  atomic energy  EATOM  =      5563.54799995
  Solvation  Ediel_sol  =         0.00000000
  ---------------------------------------------------
  free energy    TOTEN  =       -17.05375701 eV

  energy without entropy =      -16.99099265  energy(sigma->0) =      -17.02237483


--------------------------------------------------------------------------------------------------------




--------------------------------------- Iteration      1(   6)  ---------------------------------------


    POTLOK:  cpu time    0.0095: real time    0.0096
    SETDIJ:  cpu time    0.0027: real time    0.0027
    EDDIAG:  cpu time    0.1109: real time    0.1131
  RMM-DIIS:  cpu time    0.2572: real time    0.2591
    ORTHCH:  cpu time    0.0130: real time    0.0131
       DOS:  cpu time    0.0027: real time    0.0027
    CHARGE:  cpu time    0.0269: real time    0.0271
    MIXING:  cpu time    0.0006: real time    0.0007
    --------------------------------------------
      LOOP:  cpu time    0.4235: real time    0.4281

 eigenvalue-minimisations  :  1468
 total energy-change (2. order) : 0.1628609E+01  (-0.4047331E+01)
 number of electron      43.9999917 magnetization 
 augmentation part       30.0025905 magnetization 

 Broyden mixing:
  rms(total) = 0.70683E+00    rms(broyden)= 0.70664E+00
  rms(prec ) = 0.77577E+00
  weight for this iteration     100.00

 eigenvalues of (default mixing * dielectric matrix)
  average eigenvalue GAMMA=   0.6615
  0.6615

 Free energy of the ion-electron system (eV)
  ---------------------------------------------------
  alpha Z        PSCENC =       194.65170275
  Ewald energy   TEWEN  =      9957.40185099
  -Hartree energ DENC   =    -15118.49601522
  -exchange      EXHF   =         0.00000000
  -V(xc)+E(xc)   XCENC  =       169.41633182
  PAW double counting   =      4218.38072380    -4761.34183614
  entropy T*S    EENTRO =        -0.02859618
  eigenvalues    EBANDS =      -238.95730968
  atomic energy  EATOM  =      5563.54799995
  Solvation  Ediel_sol  =         0.00000000
  ---------------------------------------------------
  free energy    TOTEN  =       -15.42514792 eV

  energy without entropy =      -15.39655173  energy(sigma->0) =      -15.41084982


--------------------------------------------------------------------------------------------------------




--------------------------------------- Iteration      1(   7)  ---------------------------------------


    POTLOK:  cpu time    0.0093: real time    0.0095
    SETDIJ:  cpu time    0.0026: real time    0.0026
    EDDIAG:  cpu time    0.1109: real time    0.1117
  RMM-DIIS:  cpu time    0.2555: real time    0.2574
    ORTHCH:  cpu time    0.0129: real time    0.0130
       DOS:  cpu time    0.0027: real time    0.0028
    CHARGE:  cpu time    0.0269: real time    0.0270
    MIXING:  cpu time    0.0006: real time    0.0007
    --------------------------------------------
      LOOP:  cpu time    0.4216: real time    0.4247

 eigenvalue-minimisations  :  1461
 total energy-change (2. order) : 0.1612037E+01  (-0.6747512E+00)
 number of electron      43.9999920 magnetization 
 augmentation part       28.7921731 magnetization 

 Broyden mixing:
  rms(total) = 0.86163E-01    rms(broyden)= 0.86044E-01
  rms(prec ) = 0.99030E-01
  weight for this iteration     100.00

 eigenvalues of (default mixing * dielectric matrix)
  average eigenvalue GAMMA=   1.1596
  1.6872  0.6319

 Free energy of the ion-electron system (eV)
  ---------------------------------------------------
  alpha Z        PSCENC =       194.65170275
  Ewald energy   TEWEN  =      9957.40185099
  -Hartree energ DENC   =    -15161.81595863
  -exchange      EXHF   =         0.00000000
  -V(xc)+E(xc)   XCENC  =       171.01049716
  PAW double counting   =      4308.15145386    -4874.10526627
  entropy T*S    EENTRO =        -0.03637138
  eigenvalues    EBANDS =      -172.61901967
  atomic energy  EATOM  =      5563.54799995
  Solvation  Ediel_sol  =         0.00000000
  ---------------------------------------------------
  free energy    TOTEN  =       -13.81311124 eV

  energy without entropy =      -13.77673987  energy(sigma->0) =      -13.79492555


--------------------------------------------------------------------------------------------------------




--------------------------------------- Iteration      1(   8)  ---------------------------------------


    POTLOK:  cpu time    0.0095: real time    0.0108
    SETDIJ:  cpu time    0.0026: real time    0.0026
    EDDIAG:  cpu time    0.1103: real time    0.1111
  RMM-DIIS:  cpu time    0.2579: real time    0.2599
    ORTHCH:  cpu time    0.0129: real time    0.0130
       DOS:  cpu time    0.0028: real time    0.0028
    CHARGE:  cpu time    0.0270: real time    0.0271
    MIXING:  cpu time    0.0005: real time    0.0005
    --------------------------------------------
      LOOP:  cpu time    0.4236: real time    0.4278

 eigenvalue-minimisations  :  1470
 total energy-change (2. order) : 0.1858353E-01  (-0.1383763E-01)
 number of electron      43.9999921 magnetization 
 augmentation part       28.7213125 magnetization 

 Broyden mixing:
  rms(total) = 0.10040E+00    rms(broyden)= 0.10038E+00
  rms(prec ) = 0.11195E+00
  weight for this iteration     100.00

 eigenvalues of (default mixing * dielectric matrix)
  average eigenvalue GAMMA=   0.8343
  1.6445  0.6220  0.2364

 Free energy of the ion-electron system (eV)
  ---------------------------------------------------
  alpha Z        PSCENC =       194.65170275
  Ewald energy   TEWEN  =      9957.40185099
  -Hartree energ DENC   =    -15162.32564293
  -exchange      EXHF   =         0.00000000
  -V(xc)+E(xc)   XCENC  =       170.78815993
  PAW double counting   =      4349.50868306    -4922.14591250
  entropy T*S    EENTRO =        -0.03783088
  eigenvalues    EBANDS =      -165.18353809
  atomic energy  EATOM  =      5563.54799995
  Solvation  Ediel_sol  =         0.00000000
  ---------------------------------------------------
  free energy    TOTEN  =       -13.79452771 eV

  energy without entropy =      -13.75669683  energy(sigma->0) =      -13.77561227


--------------------------------------------------------------------------------------------------------




--------------------------------------- Iteration      1(   9)  ---------------------------------------


    POTLOK:  cpu time    0.0094: real time    0.0095
    SETDIJ:  cpu time    0.0025: real time    0.0026
    EDDIAG:  cpu time    0.1104: real time    0.1111
  RMM-DIIS:  cpu time    0.2557: real time    0.2576
    ORTHCH:  cpu time    0.0129: real time    0.0129
       DOS:  cpu time    0.0028: real time    0.0028
    CHARGE:  cpu time    0.0269: real time    0.0270
    MIXING:  cpu time    0.0006: real time    0.0006
    --------------------------------------------
      LOOP:  cpu time    0.4212: real time    0.4242

 eigenvalue-minimisations  :  1459
 total energy-change (2. order) : 0.1223650E-01  (-0.1873673E-02)
 number of electron      43.9999921 magnetization 
 augmentation part       28.7432225 magnetization 

 Broyden mixing:
  rms(total) = 0.61528E-01    rms(broyden)= 0.61521E-01
  rms(prec ) = 0.68494E-01
  weight for this iteration     100.00

 eigenvalues of (default mixing * dielectric matrix)
  average eigenvalue GAMMA=   1.1263
  2.3484  1.1125  0.6582  0.3860

 Free energy of the ion-electron system (eV)
  ---------------------------------------------------
  alpha Z        PSCENC =       194.65170275
  Ewald energy   TEWEN  =      9957.40185099
  -Hartree energ DENC   =    -15161.85531298
  -exchange      EXHF   =         0.00000000
  -V(xc)+E(xc)   XCENC  =       170.70103576
  PAW double counting   =      4354.72059712    -4927.95665704
  entropy T*S    EENTRO =        -0.04007246
  eigenvalues    EBANDS =      -164.95343530
  atomic energy  EATOM  =      5563.54799995
  Solvation  Ediel_sol  =         0.00000000
  ---------------------------------------------------
  free energy    TOTEN  =       -13.78229121 eV

  energy without entropy =      -13.74221874  energy(sigma->0) =      -13.76225498


--------------------------------------------------------------------------------------------------------




--------------------------------------- Iteration      1(  10)  ---------------------------------------


    POTLOK:  cpu time    0.0096: real time    0.0097
    SETDIJ:  cpu time    0.0027: real time    0.0027
    EDDIAG:  cpu time    0.1103: real time    0.1110
  RMM-DIIS:  cpu time    0.2565: real time    0.2584
    ORTHCH:  cpu time    0.0130: real time    0.0130
       DOS:  cpu time    0.0027: real time    0.0027
    CHARGE:  cpu time    0.0269: real time    0.0271
    MIXING:  cpu time    0.0006: real time    0.0006
    --------------------------------------------
      LOOP:  cpu time    0.4222: real time    0.4251

 eigenvalue-minimisations  :  1466
 total energy-change (2. order) : 0.7063222E-02  (-0.2968775E-02)
 number of electron      43.9999921 magnetization 
 augmentation part       28.8348868 magnetization 

 Broyden mixing:
  rms(total) = 0.14011E-01    rms(broyden)= 0.13981E-01
  rms(prec ) = 0.18683E-01
  weight for this iteration     100.00

 eigenvalues of (default mixing * dielectric matrix)
  average eigenvalue GAMMA=   1.1304
  2.3906  1.1625  1.0504  0.6715  0.3770

 Free energy of the ion-electron system (eV)
  ---------------------------------------------------
  alpha Z        PSCENC =       194.65170275
  Ewald energy   TEWEN  =      9957.40185099
  -Hartree energ DENC   =    -15157.44661208
  -exchange      EXHF   =         0.00000000
  -V(xc)+E(xc)   XCENC  =       170.44395922
  PAW double counting   =      4368.36826293    -4942.95636167
  entropy T*S    EENTRO =        -0.03721472
  eigenvalues    EBANDS =      -167.74881536
  atomic energy  EATOM  =      5563.54799995
  Solvation  Ediel_sol  =         0.00000000
  ---------------------------------------------------
  free energy    TOTEN  =       -13.77522799 eV

  energy without entropy =      -13.73801326  energy(sigma->0) =      -13.75662062


--------------------------------------------------------------------------------------------------------




--------------------------------------- Iteration      1(  11)  ---------------------------------------


    POTLOK:  cpu time    0.0099: real time    0.0109
    SETDIJ:  cpu time    0.0025: real time    0.0025
    EDDIAG:  cpu time    0.1096: real time    0.1103
  RMM-DIIS:  cpu time    0.2563: real time    0.2583
    ORTHCH:  cpu time    0.0129: real time    0.0130
       DOS:  cpu time    0.0027: real time    0.0027
    CHARGE:  cpu time    0.0263: real time    0.0264
    MIXING:  cpu time    0.0006: real time    0.0006
    --------------------------------------------
      LOOP:  cpu time    0.4208: real time    0.4248

 eigenvalue-minimisations  :  1468
 total energy-change (2. order) : 0.1242821E-02  (-0.2489447E-03)
 number of electron      43.9999921 magnetization 
 augmentation part       28.8105896 magnetization 

 Broyden mixing:
  rms(total) = 0.33682E-02    rms(broyden)= 0.32962E-02
  rms(prec ) = 0.57759E-02
  weight for this iteration     100.00

 eigenvalues of (default mixing * dielectric matrix)
  average eigenvalue GAMMA=   1.1742
  2.4308  1.7707  0.9656  0.8261  0.6830  0.3693

 Free energy of the ion-electron system (eV)
  ---------------------------------------------------
  alpha Z        PSCENC =       194.65170275
  Ewald energy   TEWEN  =      9957.40185099
  -Hartree energ DENC   =    -15159.07503628
  -exchange      EXHF   =         0.00000000
  -V(xc)+E(xc)   XCENC  =       170.44223745
  PAW double counting   =      4374.68910928    -4950.21833661
  entropy T*S    EENTRO =        -0.03848892
  eigenvalues    EBANDS =      -165.17502378
  atomic energy  EATOM  =      5563.54799995
  Solvation  Ediel_sol  =         0.00000000
  ---------------------------------------------------
  free energy    TOTEN  =       -13.77398517 eV

  energy without entropy =      -13.73549625  energy(sigma->0) =      -13.75474071


--------------------------------------------------------------------------------------------------------




--------------------------------------- Iteration      1(  12)  ---------------------------------------


    POTLOK:  cpu time    0.0096: real time    0.0100
    SETDIJ:  cpu time    0.0026: real time    0.0026
    EDDIAG:  cpu time    0.1095: real time    0.1102
  RMM-DIIS:  cpu time    0.2549: real time    0.2568
    ORTHCH:  cpu time    0.0129: real time    0.0130
       DOS:  cpu time    0.0028: real time    0.0028
    CHARGE:  cpu time    0.0264: real time    0.0265
    MIXING:  cpu time    0.0010: real time    0.0305
    --------------------------------------------
      LOOP:  cpu time    0.4196: real time    0.4524

 eigenvalue-minimisations  :  1454
 total energy-change (2. order) : 0.1008782E-03  (-0.1704319E-04)
 number of electron      43.9999921 magnetization 
 augmentation part       28.8152481 magnetization 

 Broyden mixing:
  rms(total) = 0.38766E-02    rms(broyden)= 0.38160E-02
  rms(prec ) = 0.54204E-02
  weight for this iteration     100.00

 eigenvalues of (default mixing * dielectric matrix)
  average eigenvalue GAMMA=   1.3894
  2.7751  2.7751  1.2328  0.9482  0.9482  0.6767  0.3699

 Free energy of the ion-electron system (eV)
  ---------------------------------------------------
  alpha Z        PSCENC =       194.65170275
  Ewald energy   TEWEN  =      9957.40185099
  -Hartree energ DENC   =    -15160.09942084
  -exchange      EXHF   =         0.00000000
  -V(xc)+E(xc)   XCENC  =       170.43899682
  PAW double counting   =      4375.44064667    -4950.89772570
  entropy T*S    EENTRO =        -0.03834959
  eigenvalues    EBANDS =      -164.21958535
  atomic energy  EATOM  =      5563.54799995
  Solvation  Ediel_sol  =         0.00000000
  ---------------------------------------------------
  free energy    TOTEN  =       -13.77388429 eV

  energy without entropy =      -13.73553470  energy(sigma->0) =      -13.75470949


--------------------------------------------------------------------------------------------------------




--------------------------------------- Iteration      1(  13)  ---------------------------------------


    POTLOK:  cpu time    0.0097: real time    0.0098
    SETDIJ:  cpu time    0.0025: real time    0.0025
    EDDIAG:  cpu time    0.1102: real time    0.1109
  RMM-DIIS:  cpu time    0.2455: real time    0.2474
    ORTHCH:  cpu time    0.0129: real time    0.0130
       DOS:  cpu time    0.0027: real time    0.0027
    CHARGE:  cpu time    0.0259: real time    0.0261
    MIXING:  cpu time    0.0008: real time    0.0008
    --------------------------------------------
      LOOP:  cpu time    0.4102: real time    0.4131

 eigenvalue-minimisations  :  1393
 total energy-change (2. order) : 0.3493696E-04  (-0.1914431E-04)
 number of electron      43.9999921 magnetization 
 augmentation part       28.8101916 magnetization 

 Broyden mixing:
  rms(total) = 0.11946E-02    rms(broyden)= 0.98083E-03
  rms(prec ) = 0.17302E-02
  weight for this iteration     100.00
  WARNING: grid for Broyden might be to small

 eigenvalues of (default mixing * dielectric matrix)
  average eigenvalue GAMMA=   1.4353
  2.8826  2.8826  1.7828  0.3698  0.6790  1.0259  1.0259  0.8336

 Free energy of the ion-electron system (eV)
  ---------------------------------------------------
  alpha Z        PSCENC =       194.65170275
  Ewald energy   TEWEN  =      9957.40185099
  -Hartree energ DENC   =    -15162.00143847
  -exchange      EXHF   =         0.00000000
  -V(xc)+E(xc)   XCENC  =       170.45803370
  PAW double counting   =      4375.04542924    -4950.37962232
  entropy T*S    EENTRO =        -0.03861163
  eigenvalues    EBANDS =      -162.45919356
  atomic energy  EATOM  =      5563.54799995
  Solvation  Ediel_sol  =         0.00000000
  ---------------------------------------------------
  free energy    TOTEN  =       -13.77384935 eV

  energy without entropy =      -13.73523772  energy(sigma->0) =      -13.75454354


--------------------------------------------------------------------------------------------------------




--------------------------------------- Iteration      1(  14)  ---------------------------------------


    POTLOK:  cpu time    0.0096: real time    0.0106
    SETDIJ:  cpu time    0.0025: real time    0.0025
    EDDIAG:  cpu time    0.1075: real time    0.1082
  RMM-DIIS:  cpu time    0.1866: real time    0.1879
    ORTHCH:  cpu time    0.0130: real time    0.0131
       DOS:  cpu time    0.0027: real time    0.0028
    CHARGE:  cpu time    0.0263: real time    0.0265
    MIXING:  cpu time    0.0007: real time    0.0007
    --------------------------------------------
      LOOP:  cpu time    0.3490: real time    0.3523

 eigenvalue-minimisations  :   998
 total energy-change (2. order) :-0.1162373E-03  (-0.5065284E-05)
 number of electron      43.9999921 magnetization 
 augmentation part       28.8083342 magnetization 

 Broyden mixing:
  rms(total) = 0.15127E-02    rms(broyden)= 0.13504E-02
  rms(prec ) = 0.17814E-02
  weight for this iteration     100.00
  WARNING: grid for Broyden might be to small

 eigenvalues of (default mixing * dielectric matrix)
  average eigenvalue GAMMA=   1.6932
  4.4635  3.1519  2.3421  0.3698  1.3790  0.6774  0.9165  0.9165  1.0226

 Free energy of the ion-electron system (eV)
  ---------------------------------------------------
  alpha Z        PSCENC =       194.65170275
  Ewald energy   TEWEN  =      9957.40185099
  -Hartree energ DENC   =    -15162.53926387
  -exchange      EXHF   =         0.00000000
  -V(xc)+E(xc)   XCENC  =       170.46063366
  PAW double counting   =      4374.61634633    -4949.97577897
  entropy T*S    EENTRO =        -0.03872432
  eigenvalues    EBANDS =      -161.89873211
  atomic energy  EATOM  =      5563.54799995
  Solvation  Ediel_sol  =         0.00000000
  ---------------------------------------------------
  free energy    TOTEN  =       -13.77396559 eV

  energy without entropy =      -13.73524127  energy(sigma->0) =      -13.75460343


--------------------------------------------------------------------------------------------------------




--------------------------------------- Iteration      1(  15)  ---------------------------------------


    POTLOK:  cpu time    0.0096: real time    0.0097
    SETDIJ:  cpu time    0.0027: real time    0.0027
    EDDIAG:  cpu time    0.1097: real time    0.1104
  RMM-DIIS:  cpu time    0.1685: real time    0.1697
    ORTHCH:  cpu time    0.0130: real time    0.0130
       DOS:  cpu time    0.0027: real time    0.0027
    CHARGE:  cpu time    0.0264: real time    0.0265
    MIXING:  cpu time    0.0008: real time    0.0008
    --------------------------------------------
      LOOP:  cpu time    0.3333: real time    0.3356

 eigenvalue-minimisations  :   864
 total energy-change (2. order) :-0.7561954E-04  (-0.2796677E-05)
 number of electron      43.9999921 magnetization 
 augmentation part       28.8098388 magnetization 

 Broyden mixing:
  rms(total) = 0.79787E-03    rms(broyden)= 0.41517E-03
  rms(prec ) = 0.62493E-03
  weight for this iteration     100.00
  WARNING: grid for Broyden might be to small

 eigenvalues of (default mixing * dielectric matrix)
  average eigenvalue GAMMA=   1.9134
  4.4182  4.4182  2.8158  2.1904  0.3698  0.6776  0.9466  0.9466  0.9803  1.3710

 Free energy of the ion-electron system (eV)
  ---------------------------------------------------
  alpha Z        PSCENC =       194.65170275
  Ewald energy   TEWEN  =      9957.40185099
  -Hartree energ DENC   =    -15162.80226862
  -exchange      EXHF   =         0.00000000
  -V(xc)+E(xc)   XCENC  =       170.45822425
  PAW double counting   =      4374.34165401    -4949.70585666
  entropy T*S    EENTRO =        -0.03866002
  eigenvalues    EBANDS =      -161.62868786
  atomic energy  EATOM  =      5563.54799995
  Solvation  Ediel_sol  =         0.00000000
  ---------------------------------------------------
  free energy    TOTEN  =       -13.77404121 eV

  energy without entropy =      -13.73538119  energy(sigma->0) =      -13.75471120


--------------------------------------------------------------------------------------------------------




--------------------------------------- Iteration      1(  16)  ---------------------------------------


    POTLOK:  cpu time    0.0098: real time    0.0099
    SETDIJ:  cpu time    0.0026: real time    0.0026
    EDDIAG:  cpu time    0.1109: real time    0.1116
  RMM-DIIS:  cpu time    0.1632: real time    0.1643
    ORTHCH:  cpu time    0.0129: real time    0.0130
       DOS:  cpu time    0.0027: real time    0.0028
    CHARGE:  cpu time    0.0268: real time    0.0270
    MIXING:  cpu time    0.0008: real time    0.0008
    --------------------------------------------
      LOOP:  cpu time    0.3297: real time    0.3320

 eigenvalue-minimisations  :   813
 total energy-change (2. order) :-0.6047019E-04  (-0.8806151E-06)
 number of electron      43.9999921 magnetization 
 augmentation part       28.8102821 magnetization 

 Broyden mixing:
  rms(total) = 0.75629E-03    rms(broyden)= 0.32831E-03
  rms(prec ) = 0.40836E-03
  weight for this iteration     100.00
  WARNING: grid for Broyden might be to small

 eigenvalues of (default mixing * dielectric matrix)
  average eigenvalue GAMMA=   1.9697
  5.6632  4.6812  2.5964  2.3563  1.4972  0.3698  0.6776  0.9407  0.9407  0.9378
  1.0058

 Free energy of the ion-electron system (eV)
  ---------------------------------------------------
  alpha Z        PSCENC =       194.65170275
  Ewald energy   TEWEN  =      9957.40185099
  -Hartree energ DENC   =    -15162.89310597
  -exchange      EXHF   =         0.00000000
  -V(xc)+E(xc)   XCENC  =       170.45580539
  PAW double counting   =      4374.73215604    -4950.12596111
  entropy T*S    EENTRO =        -0.03862261
  eigenvalues    EBANDS =      -161.50592711
  atomic energy  EATOM  =      5563.54799995
  Solvation  Ediel_sol  =         0.00000000
  ---------------------------------------------------
  free energy    TOTEN  =       -13.77410168 eV

  energy without entropy =      -13.73547907  energy(sigma->0) =      -13.75479037


--------------------------------------------------------------------------------------------------------




--------------------------------------- Iteration      1(  17)  ---------------------------------------


    POTLOK:  cpu time    0.0097: real time    0.0110
    SETDIJ:  cpu time    0.0026: real time    0.0026
    EDDIAG:  cpu time    0.1105: real time    0.1112
  RMM-DIIS:  cpu time    0.1563: real time    0.1574
    ORTHCH:  cpu time    0.0130: real time    0.0131
       DOS:  cpu time    0.0028: real time    0.0028
    --------------------------------------------
      LOOP:  cpu time    0.2949: real time    0.2981

 eigenvalue-minimisations  :   766
 total energy-change (2. order) :-0.6541282E-05  (-0.1412962E-06)
 number of electron      43.9999921 magnetization 
 augmentation part       28.8102821 magnetization 

 Free energy of the ion-electron system (eV)
  ---------------------------------------------------
  alpha Z        PSCENC =       194.65170275
  Ewald energy   TEWEN  =      9957.40185099
  -Hartree energ DENC   =    -15162.91177444
  -exchange      EXHF   =         0.00000000
  -V(xc)+E(xc)   XCENC  =       170.45662966
  PAW double counting   =      4374.59869759    -4949.96862360
  entropy T*S    EENTRO =        -0.03863165
  eigenvalues    EBANDS =      -161.51195947
  atomic energy  EATOM  =      5563.54799995
  Solvation  Ediel_sol  =         0.00000000
  ---------------------------------------------------
  free energy    TOTEN  =       -13.77410822 eV

  energy without entropy =      -13.73547657  energy(sigma->0) =      -13.75479240


--------------------------------------------------------------------------------------------------------




 average (electrostatic) potential at core
  the test charge radii are     1.0053
  (the norm of the test charge is              1.0000)
       1 -44.3387       2 -44.4933       3 -44.4933       4 -44.3387
 
 
 
 E-fermi :  -0.8065     XC(G=0):  -6.8357     alpha+bet : -4.3323


 k-point     1 :       0.0000    0.0000    0.0000
  band No.  band energies     occupation 
      1      -9.5246      2.00000
      2      -8.3052      2.00000
      3      -6.6810      2.00000
      4      -5.8485      2.00000
      5      -3.8776      2.00000
      6      -3.8549      2.00000
      7      -3.7513      2.00000
      8      -3.7509      2.00000
      9      -3.7087      2.00000
     10      -3.7084      2.00000
     11      -3.5754      2.00000
     12      -3.5750      2.00000
     13      -3.5729      2.00000
     14      -3.5293      2.00000
     15      -3.5290      2.00000
     16      -2.9951      2.00000
     17      -2.9950      2.00000
     18      -2.8746      2.00000
     19      -2.8746      2.00000
     20      -2.6210      2.00000
     21      -2.6210      2.00000
     22      -2.4769      2.00000
     23      -2.4769      2.00000
     24      -2.0356      2.00000
     25      -1.0036      1.83665
     26       3.3604      0.00000

 k-point     2 :       0.1000    0.0000    0.0000
  band No.  band energies     occupation 
      1      -9.2108      2.00000
      2      -8.0044      2.00000
      3      -6.4059      2.00000
      4      -5.6345      2.00000
      5      -3.9906      2.00000
      6      -3.9534      2.00000
      7      -3.8427      2.00000
      8      -3.6946      2.00000
      9      -3.6615      2.00000
     10      -3.6444      2.00000
     11      -3.6395      2.00000
     12      -3.6328      2.00000
     13      -3.5245      2.00000
     14      -3.4754      2.00000
     15      -3.4308      2.00000
     16      -3.0623      2.00000
     17      -3.0428      2.00000
     18      -2.9565      2.00000
     19      -2.8701      2.00000
     20      -2.8547      2.00000
     21      -2.6231      2.00000
     22      -2.5861      2.00000
     23      -2.4729      2.00000
     24      -1.5101      2.00000
     25      -0.3032      0.00037
     26       3.6680      0.00000

 k-point     3 :       0.2000    0.0000    0.0000
  band No.  band energies     occupation 
      1      -8.3077      2.00000
      2      -7.1648      2.00000
      3      -5.7068      2.00000
      4      -5.1233      2.00000
      5      -4.3140      2.00000
      6      -4.1079      2.00000
      7      -4.0687      2.00000
      8      -3.7893      2.00000
      9      -3.7695      2.00000
     10      -3.7118      2.00000
     11      -3.5098      2.00000
     12      -3.5060      2.00000
     13      -3.3672      2.00000
     14      -3.3266      2.00000
     15      -3.2553      2.00000
     16      -3.1667      2.00000
     17      -3.1645      2.00000
     18      -3.0187      2.00000
     19      -2.8985      2.00000
     20      -2.8572      2.00000
     21      -2.6313      2.00000
     22      -2.4624      2.00000
     23      -2.2130      2.00000
     24      -0.5898      0.12554
     25       1.1247      0.00000
     26       4.4423      0.00000

 k-point     4 :       0.3000    0.0000    0.0000
  band No.  band energies     occupation 
      1      -6.9917      2.00000
      2      -6.1048      2.00000
      3      -5.1955      2.00000
      4      -4.8215      2.00000
      5      -4.6033      2.00000
      6      -4.3186      2.00000
      7      -4.0771      2.00000
      8      -3.9243      2.00000
      9      -3.6830      2.00000
     10      -3.5448      2.00000
     11      -3.5048      2.00000
     12      -3.4218      2.00000
     13      -3.3228      2.00000
     14      -3.2018      2.00000
     15      -2.9697      2.00000
     16      -2.9307      2.00000
     17      -2.8151      2.00000
     18      -2.7319      2.00000
     19      -2.7217      2.00000
     20      -2.7047      2.00000
     21      -2.6159      2.00000
     22      -2.4482      2.00000
     23      -1.5649      2.00000
     24       0.6275      0.00000
     25       2.9398      0.00000
     26       5.6495      0.00000

 k-point     5 :       0.4000    0.0000    0.0000
  band No.  band energies     occupation 
      1      -5.8530      2.00000
      2      -5.5205      2.00000
      3      -5.1546      2.00000
      4      -4.9469      2.00000
      5      -4.8153      2.00000
      6      -4.5251      2.00000
      7      -4.0327      2.00000
      8      -3.8135      2.00000
      9      -3.6657      2.00000
     10      -3.6307      2.00000
     11      -3.3374      2.00000
     12      -3.2238      2.00000
     13      -2.8806      2.00000
     14      -2.7882      2.00000
     15      -2.6169      2.00000
     16      -2.5656      2.00000
     17      -2.5400      2.00000
     18      -2.4563      2.00000
     19      -2.4133      2.00000
     20      -2.3781      2.00000
     21      -2.2992      2.00000
     22      -1.7651      2.00000
     23      -0.2958      0.00030
     24       1.9306      0.00000
     25       4.1137      0.00000
     26       4.8341      0.00000

 k-point     6 :       0.5000    0.0000    0.0000
  band No.  band energies     occupation 
      1      -5.5460      2.00000
      2      -5.4208      2.00000
      3      -5.0554      2.00000
      4      -5.0220      2.00000
      5      -4.9699      2.00000
      6      -4.6013      2.00000
      7      -4.0461      2.00000
      8      -3.8719      2.00000
      9      -3.6667      2.00000
     10      -3.5081      2.00000
     11      -3.2417      2.00000
     12      -3.2124      2.00000
     13      -2.7723      2.00000
     14      -2.7104      2.00000
     15      -2.5189      2.00000
     16      -2.5102      2.00000
     17      -2.4301      2.00000
     18      -2.3774      2.00000
     19      -2.2902      2.00000
     20      -2.2798      2.00000
     21      -0.9885      1.80187
     22      -0.0601      0.00000
     23       0.4973      0.00000
     24       0.7518      0.00000
     25       3.3635      0.00000
     26       4.1886      0.00000

 k-point     7 :       0.2000    0.1000    0.0000
  band No.  band energies     occupation 
      1      -8.6007      2.00000
      2      -7.4305      2.00000
      3      -5.9075      2.00000
      4      -5.2595      2.00000
      5      -4.1776      2.00000
      6      -4.1202      2.00000
      7      -4.0049      2.00000
      8      -3.7806      2.00000
      9      -3.7482      2.00000
     10      -3.7351      2.00000
     11      -3.5831      2.00000
     12      -3.5114      2.00000
     13      -3.4409      2.00000
     14      -3.2826      2.00000
     15      -3.2512      2.00000
     16      -3.1883      2.00000
     17      -3.1542      2.00000
     18      -3.0874      2.00000
     19      -2.9090      2.00000
     20      -2.7545      2.00000
     21      -2.7187      2.00000
     22      -2.5143      2.00000
     23      -2.2925      2.00000
     24      -0.8563      1.27519
     25       0.7020      0.00000
     26       4.1984      0.00000

 k-point     8 :       0.3000    0.1000    0.0000
  band No.  band energies     occupation 
      1      -7.4711      2.00000
      2      -6.4400      2.00000
      3      -5.2334      2.00000
      4      -4.7778      2.00000
      5      -4.4339      2.00000
      6      -4.2458      2.00000
      7      -4.1954      2.00000
      8      -3.9274      2.00000
      9      -3.8585      2.00000
     10      -3.7865      2.00000
     11      -3.6407      2.00000
     12      -3.5122      2.00000
     13      -3.3632      2.00000
     14      -3.2190      2.00000
     15      -3.1810      2.00000
     16      -3.0534      2.00000
     17      -2.8655      2.00000
     18      -2.7928      2.00000
     19      -2.7378      2.00000
     20      -2.6735      2.00000
     21      -2.6485      2.00000
     22      -2.5178      2.00000
     23      -1.7803      2.00000
     24       0.1823      0.00000
     25       2.2713      0.00000
     26       5.1932      0.00000

 k-point     9 :       0.4000    0.1000    0.0000
  band No.  band energies     occupation 
      1      -6.1608      2.00000
      2      -5.5811      2.00000
      3      -5.0608      2.00000
      4      -4.7916      2.00000
      5      -4.6022      2.00000
      6      -4.4071      2.00000
      7      -4.1088      2.00000
      8      -3.9402      2.00000
      9      -3.7213      2.00000
     10      -3.6695      2.00000
     11      -3.4840      2.00000
     12      -3.3780      2.00000
     13      -3.2967      2.00000
     14      -3.1416      2.00000
     15      -2.9173      2.00000
     16      -2.8467      2.00000
     17      -2.7367      2.00000
     18      -2.5733      2.00000
     19      -2.5428      2.00000
     20      -2.4449      2.00000
     21      -2.1847      2.00000
     22      -1.9682      2.00000
     23      -0.6938      0.42545
     24       1.6182      0.00000
     25       4.1862      0.00000
     26       5.8154      0.00000

 k-point    10 :       0.5000    0.1000    0.0000
  band No.  band energies     occupation 
      1      -5.4671      2.00000
      2      -5.3263      2.00000
      3      -4.9951      2.00000
      4      -4.9248      2.00000
      5      -4.8018      2.00000
      6      -4.5337      2.00000
      7      -4.0956      2.00000
      8      -3.8192      2.00000
      9      -3.7252      2.00000
     10      -3.6051      2.00000
     11      -3.4670      2.00000
     12      -3.1668      2.00000
     13      -2.9350      2.00000
     14      -2.8474      2.00000
     15      -2.7728      2.00000
     16      -2.6062      2.00000
     17      -2.5506      2.00000
     18      -2.5277      2.00000
     19      -2.4360      2.00000
     20      -2.3643      2.00000
     21      -0.9885      1.80196
     22      -0.3558      0.00144
     23       0.8178      0.00000
     24       1.8753      0.00000
     25       3.6699      0.00000
     26       4.5591      0.00000

 k-point    11 :       0.4000    0.2000    0.0000
  band No.  band energies     occupation 
      1      -6.2801      2.00000
      2      -5.5669      2.00000
      3      -4.9360      2.00000
      4      -4.5173      2.00000
      5      -4.4917      2.00000
      6      -4.2839      2.00000
      7      -4.2049      2.00000
      8      -4.0259      2.00000
      9      -3.8726      2.00000
     10      -3.8625      2.00000
     11      -3.8357      2.00000
     12      -3.4791      2.00000
     13      -3.4746      2.00000
     14      -3.2288      2.00000
     15      -3.0623      2.00000
     16      -2.8981      2.00000
     17      -2.8408      2.00000
     18      -2.5932      2.00000
     19      -2.5265      2.00000
     20      -2.4570      2.00000
     21      -2.1152      2.00000
     22      -1.9151      2.00000
     23      -0.7462      0.66990
     24       1.4869      0.00000
     25       3.9489      0.00000
     26       6.4537      0.00000

 k-point    12 :       0.5000    0.2000    0.0000
  band No.  band energies     occupation 
      1      -5.2997      2.00000
      2      -5.0996      2.00000
      3      -4.8709      2.00000
      4      -4.6842      2.00000
      5      -4.4920      2.00000
      6      -4.3489      2.00000
      7      -4.2362      2.00000
      8      -3.9885      2.00000
      9      -3.9146      2.00000
     10      -3.6205      2.00000
     11      -3.5496      2.00000
     12      -3.4984      2.00000
     13      -3.4343      2.00000
     14      -3.1879      2.00000
     15      -2.9335      2.00000
     16      -2.8774      2.00000
     17      -2.8081      2.00000
     18      -2.5622      2.00000
     19      -2.4465      2.00000
     20      -2.3719      2.00000
     21      -0.9856      1.79455
     22      -0.3837      0.00279
     23       1.0427      0.00000
     24       3.1662      0.00000
     25       4.7465      0.00000
     26       5.6465      0.00000

 k-point    13 :      -0.4000    0.2000    0.0000
  band No.  band energies     occupation 
      1      -5.0699      2.00000
      2      -5.0496      2.00000
      3      -4.7570      2.00000
      4      -4.6908      2.00000
      5      -4.5952      2.00000
      6      -4.3891      2.00000
      7      -4.2750      2.00000
      8      -3.9069      2.00000
      9      -3.8825      2.00000
     10      -3.6431      2.00000
     11      -3.5914      2.00000
     12      -3.2947      2.00000
     13      -3.2558      2.00000
     14      -3.1893      2.00000
     15      -2.9101      2.00000
     16      -2.7680      2.00000
     17      -2.6373      2.00000
     18      -2.5534      2.00000
     19      -2.5244      2.00000
     20      -2.4358      2.00000
     21       0.7755      0.00000
     22       1.2146      0.00000
     23       1.7611      0.00000
     24       2.2934      0.00000
     25       3.9090      0.00000
     26       4.8019      0.00000

 k-point    14 :      -0.4000    0.3000    0.0000
  band No.  band energies     occupation 
      1      -4.8180      2.00000
      2      -4.7675      2.00000
      3      -4.7130      2.00000
      4      -4.5474      2.00000
      5      -4.4708      2.00000
      6      -4.4249      2.00000
      7      -4.2907      2.00000
      8      -3.9970      2.00000
      9      -3.9419      2.00000
     10      -3.6369      2.00000
     11      -3.5709      2.00000
     12      -3.5635      2.00000
     13      -3.5545      2.00000
     14      -3.1512      2.00000
     15      -2.9780      2.00000
     16      -2.9578      2.00000
     17      -2.7117      2.00000
     18      -2.5686      2.00000
     19      -2.5283      2.00000
     20      -2.4699      2.00000
     21       1.0097      0.00000
     22       1.8708      0.00000
     23       3.2027      0.00000
     24       3.8811      0.00000
     25       3.9583      0.00000
     26       4.8860      0.00000

 k-point    15 :       0.0000    0.0000    0.5000
  band No.  band energies     occupation 
      1      -9.5246      2.00000
      2      -8.3052      2.00000
      3      -6.6809      2.00000
      4      -5.8484      2.00000
      5      -3.8760      2.00000
      6      -3.8536      2.00000
      7      -3.7492      2.00000
      8      -3.7489      2.00000
      9      -3.7088      2.00000
     10      -3.7085      2.00000
     11      -3.5729      2.00000
     12      -3.5727      2.00000
     13      -3.5723      2.00000
     14      -3.5290      2.00000
     15      -3.5286      2.00000
     16      -2.9961      2.00000
     17      -2.9960      2.00000
     18      -2.8773      2.00000
     19      -2.8772      2.00000
     20      -2.6205      2.00000
     21      -2.6204      2.00000
     22      -2.4777      2.00000
     23      -2.4777      2.00000
     24      -2.0357      2.00000
     25      -1.0029      1.83506
     26       3.1128      0.00000

 k-point    16 :       0.1000    0.0000    0.5000
  band No.  band energies     occupation 
      1      -9.2108      2.00000
      2      -8.0044      2.00000
      3      -6.4060      2.00000
      4      -5.6347      2.00000
      5      -3.9917      2.00000
      6      -3.9535      2.00000
      7      -3.8445      2.00000
      8      -3.6940      2.00000
      9      -3.6617      2.00000
     10      -3.6465      2.00000
     11      -3.6414      2.00000
     12      -3.6337      2.00000
     13      -3.5250      2.00000
     14      -3.4765      2.00000
     15      -3.4320      2.00000
     16      -3.0606      2.00000
     17      -3.0433      2.00000
     18      -2.9581      2.00000
     19      -2.8718      2.00000
     20      -2.8540      2.00000
     21      -2.6249      2.00000
     22      -2.5859      2.00000
     23      -2.4760      2.00000
     24      -1.5103      2.00000
     25      -0.3024      0.00037
     26       3.3801      0.00000

 k-point    17 :       0.2000    0.0000    0.5000
  band No.  band energies     occupation 
      1      -8.3077      2.00000
      2      -7.1648      2.00000
      3      -5.7067      2.00000
      4      -5.1233      2.00000
      5      -4.3161      2.00000
      6      -4.1086      2.00000
      7      -4.0673      2.00000
      8      -3.7884      2.00000
      9      -3.7697      2.00000
     10      -3.7110      2.00000
     11      -3.5119      2.00000
     12      -3.5068      2.00000
     13      -3.3676      2.00000
     14      -3.3267      2.00000
     15      -3.2545      2.00000
     16      -3.1679      2.00000
     17      -3.1656      2.00000
     18      -3.0197      2.00000
     19      -2.8982      2.00000
     20      -2.8569      2.00000
     21      -2.6339      2.00000
     22      -2.4627      2.00000
     23      -2.2127      2.00000
     24      -0.5903      0.12640
     25       1.1272      0.00000
     26       4.1792      0.00000

 k-point    18 :       0.3000    0.0000    0.5000
  band No.  band energies     occupation 
      1      -6.9916      2.00000
      2      -6.1046      2.00000
      3      -5.1953      2.00000
      4      -4.8217      2.00000
      5      -4.6034      2.00000
      6      -4.3188      2.00000
      7      -4.0763      2.00000
      8      -3.9217      2.00000
      9      -3.6833      2.00000
     10      -3.5477      2.00000
     11      -3.5042      2.00000
     12      -3.4219      2.00000
     13      -3.3220      2.00000
     14      -3.2055      2.00000
     15      -2.9716      2.00000
     16      -2.9327      2.00000
     17      -2.8159      2.00000
     18      -2.7302      2.00000
     19      -2.7225      2.00000
     20      -2.7059      2.00000
     21      -2.6194      2.00000
     22      -2.4494      2.00000
     23      -1.5644      2.00000
     24       0.6274      0.00000
     25       2.9424      0.00000
     26       5.4818      0.00000

 k-point    19 :       0.4000    0.0000    0.5000
  band No.  band energies     occupation 
      1      -5.8529      2.00000
      2      -5.5204      2.00000
      3      -5.1545      2.00000
      4      -4.9453      2.00000
      5      -4.8138      2.00000
      6      -4.5245      2.00000
      7      -4.0335      2.00000
      8      -3.8109      2.00000
      9      -3.6649      2.00000
     10      -3.6285      2.00000
     11      -3.3362      2.00000
     12      -3.2239      2.00000
     13      -2.8776      2.00000
     14      -2.7865      2.00000
     15      -2.6146      2.00000
     16      -2.5641      2.00000
     17      -2.5386      2.00000
     18      -2.4561      2.00000
     19      -2.4127      2.00000
     20      -2.3775      2.00000
     21      -2.2985      2.00000
     22      -1.7645      2.00000
     23      -0.2953      0.00030
     24       1.9307      0.00000
     25       4.1145      0.00000
     26       4.8356      0.00000

 k-point    20 :       0.5000    0.0000    0.5000
  band No.  band energies     occupation 
      1      -5.5458      2.00000
      2      -5.4209      2.00000
      3      -5.0555      2.00000
      4      -5.0215      2.00000
      5      -4.9719      2.00000
      6      -4.6003      2.00000
      7      -4.0451      2.00000
      8      -3.8700      2.00000
      9      -3.6627      2.00000
     10      -3.5084      2.00000
     11      -3.2384      2.00000
     12      -3.2121      2.00000
     13      -2.7686      2.00000
     14      -2.7088      2.00000
     15      -2.5192      2.00000
     16      -2.5103      2.00000
     17      -2.4285      2.00000
     18      -2.3777      2.00000
     19      -2.2897      2.00000
     20      -2.2809      2.00000
     21      -0.9883      1.80149
     22      -0.0599      0.00000
     23       0.4972      0.00000
     24       0.7521      0.00000
     25       3.3645      0.00000
     26       4.1882      0.00000

 k-point    21 :       0.2000    0.1000    0.5000
  band No.  band energies     occupation 
      1      -8.6007      2.00000
      2      -7.4305      2.00000
      3      -5.9078      2.00000
      4      -5.2599      2.00000
      5      -4.1798      2.00000
      6      -4.1216      2.00000
      7      -4.0066      2.00000
      8      -3.7818      2.00000
      9      -3.7498      2.00000
     10      -3.7359      2.00000
     11      -3.5835      2.00000
     12      -3.5120      2.00000
     13      -3.4417      2.00000
     14      -3.2849      2.00000
     15      -3.2519      2.00000
     16      -3.1901      2.00000
     17      -3.1560      2.00000
     18      -3.0875      2.00000
     19      -2.9088      2.00000
     20      -2.7551      2.00000
     21      -2.7191      2.00000
     22      -2.5153      2.00000
     23      -2.2941      2.00000
     24      -0.8575      1.28167
     25       0.7032      0.00000
     26       3.9138      0.00000

 k-point    22 :       0.3000    0.1000    0.5000
  band No.  band energies     occupation 
      1      -7.4711      2.00000
      2      -6.4400      2.00000
      3      -5.2334      2.00000
      4      -4.7773      2.00000
      5      -4.4330      2.00000
      6      -4.2448      2.00000
      7      -4.1944      2.00000
      8      -3.9266      2.00000
      9      -3.8575      2.00000
     10      -3.7866      2.00000
     11      -3.6400      2.00000
     12      -3.5125      2.00000
     13      -3.3624      2.00000
     14      -3.2177      2.00000
     15      -3.1786      2.00000
     16      -3.0517      2.00000
     17      -2.8645      2.00000
     18      -2.7910      2.00000
     19      -2.7384      2.00000
     20      -2.6730      2.00000
     21      -2.6466      2.00000
     22      -2.5165      2.00000
     23      -1.7799      2.00000
     24       0.1824      0.00000
     25       2.2737      0.00000
     26       4.9814      0.00000

[...]
      1      -5.9467      2.00000
      2      -5.5987      2.00000
      3      -5.2120      2.00000
      4      -5.0056      2.00000
      5      -4.8505      2.00000
      6      -4.5780      2.00000
      7      -4.0552      2.00000
      8      -3.8052      2.00000
      9      -3.7079      2.00000
     10      -3.7016      2.00000
     11      -3.3618      2.00000
     12      -3.2753      2.00000
     13      -2.8897      2.00000
     14      -2.8007      2.00000
     15      -2.6084      2.00000
     16      -2.5683      2.00000
     17      -2.5576      2.00000
     18      -2.4586      2.00000
     19      -2.4213      2.00000
     20      -2.3698      2.00000
     21      -2.3137      2.00000
     22      -1.7651      2.00000
     23      -0.2571      0.00023
     24       2.0108      0.00000
     25       4.1165      0.00000
     26       4.8541      0.00000

 k-point    20 :       0.5000    0.0000    0.5000
  band No.  band energies     occupation 
      1      -5.6285      2.00000
      2      -5.5002      2.00000
      3      -5.1091      2.00000
      4      -5.0700      2.00000
      5      -5.0273      2.00000
      6      -4.6566      2.00000
      7      -4.0629      2.00000
      8      -3.8533      2.00000
      9      -3.7428      2.00000
     10      -3.5491      2.00000
     11      -3.2873      2.00000
     12      -3.2399      2.00000
     13      -2.7764      2.00000
     14      -2.7045      2.00000
     15      -2.5116      2.00000
     16      -2.5100      2.00000
     17      -2.4491      2.00000
     18      -2.3872      2.00000
     19      -2.2994      2.00000
     20      -2.2843      2.00000
     21      -1.0293      1.92442
     22      -0.0764      0.00000
     23       0.4899      0.00000
     24       0.7559      0.00000
     25       3.4112      0.00000
     26       4.2250      0.00000

 k-point    21 :       0.2000    0.1000    0.5000
  band No.  band energies     occupation 
      1      -8.7040      2.00000
      2      -7.4932      2.00000
      3      -5.9228      2.00000
      4      -5.3030      2.00000
      5      -4.2197      2.00000
      6      -4.1616      2.00000
      7      -4.0492      2.00000
      8      -3.8106      2.00000
      9      -3.7643      2.00000
     10      -3.7312      2.00000
     11      -3.6221      2.00000
     12      -3.5286      2.00000
     13      -3.4784      2.00000
     14      -3.3075      2.00000
     15      -3.2821      2.00000
     16      -3.1950      2.00000
     17      -3.1634      2.00000
     18      -3.1001      2.00000
     19      -2.9072      2.00000
     20      -2.7604      2.00000
     21      -2.7291      2.00000
     22      -2.5000      2.00000
     23      -2.2765      2.00000
     24      -0.7934      1.08713
     25       0.7805      0.00000
     26       3.9585      0.00000

 k-point    22 :       0.3000    0.1000    0.5000
  band No.  band energies     occupation 
      1      -7.5761      2.00000
      2      -6.5103      2.00000
      3      -5.2689      2.00000
      4      -4.8316      2.00000
      5      -4.4829      2.00000
      6      -4.2980      2.00000
      7      -4.2408      2.00000
      8      -3.9461      2.00000
      9      -3.8738      2.00000
     10      -3.8027      2.00000
     11      -3.6905      2.00000
     12      -3.5107      2.00000
     13      -3.3870      2.00000
     14      -3.2350      2.00000
     15      -3.1930      2.00000
     16      -3.0796      2.00000
     17      -2.8819      2.00000
     18      -2.7945      2.00000
     19      -2.7469      2.00000
     20      -2.6715      2.00000
     21      -2.6418      2.00000
     22      -2.5001      2.00000
     23      -1.7401      2.00000
     24       0.2751      0.00000
     25       2.3555      0.00000
     26       5.0423      0.00000

 k-point    23 :       0.4000    0.1000    0.5000
  band No.  band energies     occupation 
      1      -6.2636      2.00000
      2      -5.6600      2.00000
      3      -5.1189      2.00000
      4      -4.8522      2.00000
      5      -4.6357      2.00000
      6      -4.4603      2.00000
      7      -4.1583      2.00000
      8      -3.9790      2.00000
      9      -3.7716      2.00000
     10      -3.6712      2.00000
     11      -3.5139      2.00000
     12      -3.4040      2.00000
     13      -3.3172      2.00000
     14      -3.1619      2.00000
     15      -2.9195      2.00000
     16      -2.8489      2.00000
     17      -2.7362      2.00000
     18      -2.5642      2.00000
     19      -2.5507      2.00000
     20      -2.4347      2.00000
     21      -2.1940      2.00000
     22      -1.9743      2.00000
     23      -0.6475      0.35639
     24       1.7237      0.00000
     25       4.2647      0.00000
     26       5.7909      0.00000

 k-point    24 :       0.5000    0.1000    0.5000
  band No.  band energies     occupation 
      1      -5.5531      2.00000
      2      -5.4063      2.00000
      3      -5.0524      2.00000
      4      -4.9872      2.00000
      5      -4.8439      2.00000
      6      -4.5860      2.00000
      7      -4.1341      2.00000
      8      -3.8178      2.00000
      9      -3.7832      2.00000
     10      -3.6482      2.00000
     11      -3.5020      2.00000
     12      -3.1991      2.00000
     13      -2.9523      2.00000
     14      -2.8542      2.00000
     15      -2.7836      2.00000
     16      -2.6051      2.00000
     17      -2.5523      2.00000
     18      -2.5141      2.00000
     19      -2.4368      2.00000
     20      -2.3600      2.00000
     21      -1.0167      1.90861
     22      -0.3712      0.00403
     23       0.8290      0.00000
     24       1.8788      0.00000
     25       3.7041      0.00000
     26       4.5995      0.00000

 k-point    25 :       0.4000    0.2000    0.5000
  band No.  band energies     occupation 
      1      -6.3867      2.00000
      2      -5.6473      2.00000
      3      -4.9950      2.00000
      4      -4.5855      2.00000
      5      -4.5565      2.00000
      6      -4.3380      2.00000
      7      -4.2411      2.00000
      8      -4.0555      2.00000
      9      -3.9116      2.00000
     10      -3.8952      2.00000
     11      -3.8539      2.00000
     12      -3.4905      2.00000
     13      -3.4808      2.00000
     14      -3.2365      2.00000
     15      -3.0708      2.00000
     16      -2.9157      2.00000
     17      -2.8442      2.00000
     18      -2.5843      2.00000
     19      -2.5347      2.00000
     20      -2.4519      2.00000
     21      -2.1246      2.00000
     22      -1.9232      2.00000
     23      -0.6999      0.58088
     24       1.5927      0.00000
     25       4.0321      0.00000
     26       6.3788      0.00000

 k-point    26 :       0.5000    0.2000    0.5000
  band No.  band energies     occupation 
      1      -5.3973      2.00000
      2      -5.1836      2.00000
      3      -4.9419      2.00000
      4      -4.7497      2.00000
      5      -4.5499      2.00000
      6      -4.3985      2.00000
      7      -4.2939      2.00000
      8      -4.0372      2.00000
      9      -3.9590      2.00000
     10      -3.6370      2.00000
     11      -3.5657      2.00000
     12      -3.5146      2.00000
     13      -3.4462      2.00000
     14      -3.1935      2.00000
     15      -2.9285      2.00000
     16      -2.8768      2.00000
     17      -2.8014      2.00000
     18      -2.5534      2.00000
     19      -2.4439      2.00000
     20      -2.3673      2.00000
     21      -1.0108      1.90034
     22      -0.3949      0.00675
     23       1.0785      0.00000
     24       3.2446      0.00000
     25       4.7290      0.00000
     26       5.6572      0.00000

 k-point    27 :      -0.4000    0.2000    0.5000
  band No.  band energies     occupation 
      1      -5.1542      2.00000
      2      -5.1318      2.00000
      3      -4.8252      2.00000
      4      -4.7597      2.00000
      5      -4.6544      2.00000
      6      -4.4380      2.00000
      7      -4.3425      2.00000
      8      -3.9490      2.00000
      9      -3.9278      2.00000
     10      -3.6687      2.00000
     11      -3.5947      2.00000
     12      -3.3146      2.00000
     13      -3.2670      2.00000
     14      -3.1982      2.00000
     15      -2.9070      2.00000
     16      -2.7605      2.00000
     17      -2.6323      2.00000
     18      -2.5405      2.00000
     19      -2.5155      2.00000
     20      -2.4267      2.00000
     21       0.7320      0.00000
     22       1.1797      0.00000
     23       1.7406      0.00000
     24       2.2960      0.00000
     25       3.9557      0.00000
     26       4.8418      0.00000

 k-point    28 :      -0.4000    0.3000    0.5000
  band No.  band energies     occupation 
      1      -4.9050      2.00000
      2      -4.8523      2.00000
      3      -4.7925      2.00000
      4      -4.6231      2.00000
      5      -4.5414      2.00000
      6      -4.5009      2.00000
      7      -4.3529      2.00000
      8      -4.0331      2.00000
      9      -3.9768      2.00000
     10      -3.6550      2.00000
     11      -3.5829      2.00000
     12      -3.5766      2.00000
     13      -3.5645      2.00000
     14      -3.1395      2.00000
     15      -2.9640      2.00000
     16      -2.9407      2.00000
     17      -2.7048      2.00000
     18      -2.5621      2.00000
     19      -2.5204      2.00000
     20      -2.4607      2.00000
     21       0.9702      0.00000
     22       1.8525      0.00000
     23       3.2004      0.00000
     24       3.8431      0.00000
     25       3.9283      0.00000
     26       4.9030      0.00000


--------------------------------------------------------------------------------------------------------


 soft charge-density along one line, spin component           1
         0         1         2         3         4         5         6         7         8         9
 total charge-density along one line
 
 pseudopotential strength for first ion, spin component:           1
 -9.762   0.000   0.000  -0.006   0.000   1.250  -0.000  -0.000
  0.000  -9.715  -0.000   0.000  -0.006  -0.000   1.228   0.000
  0.000  -0.000  -9.707  -0.000   0.000  -0.000   0.000   1.224
 -0.006   0.000  -0.000  -9.715   0.000   0.002  -0.000   0.000
  0.000  -0.006   0.000   0.000  -9.762  -0.000   0.002  -0.000
  1.250  -0.000  -0.000   0.002  -0.000   0.999   0.000   0.000
 -0.000   1.228   0.000  -0.000   0.002   0.000   1.009  -0.000
 -0.000   0.000   1.224   0.000  -0.000   0.000  -0.000   1.011
  0.002  -0.000   0.000   1.228  -0.000  -0.001   0.000  -0.000
 -0.000   0.002  -0.000  -0.000   1.250   0.000  -0.001   0.000
  0.000   0.000  -0.007   0.000   0.000   0.000   0.000   0.003
 -0.000  -0.000   0.000  -0.000  -0.000   0.000   0.000  -0.000
  0.000  -0.010  -0.000  -0.000   0.000  -0.000   0.006   0.000
 -0.000   0.000  -0.011   0.000  -0.000  -0.000  -0.000   0.006
  0.000  -0.000  -0.000  -0.010   0.000  -0.000  -0.000   0.000
 -0.000   0.005   0.000   0.000  -0.000   0.000  -0.003  -0.000
  0.000  -0.000   0.005  -0.000   0.000  -0.000   0.000  -0.003
 -0.000   0.000   0.000   0.005  -0.000   0.000  -0.000  -0.000
 total augmentation occupancy for first ion, spin component:           1
  1.925  -0.000   0.000  -0.004  -0.000   0.000   0.000   0.000   0.011   0.000  -0.000   0.000   0.000   0.000   0.009  -0.000
 -0.000   1.936   0.000  -0.000  -0.004   0.000  -0.034  -0.000   0.000   0.012   0.000   0.000  -0.000   0.000  -0.000  -0.004
  0.000   0.000   1.939   0.000  -0.000   0.000  -0.000  -0.026  -0.000   0.000   0.012   0.034  -0.000   0.034   0.000   0.000
 -0.004  -0.000  -0.000   1.936   0.000   0.012   0.000   0.000  -0.034   0.000  -0.000   0.000  -0.000  -0.000  -0.000   0.000
  0.000  -0.004  -0.000   0.000   1.925   0.000   0.011   0.000   0.000   0.000  -0.000  -0.000   0.009  -0.000   0.000  -0.001
  0.000   0.000   0.000   0.012   0.000   0.059   0.000   0.000   0.001  -0.000  -0.000   0.000   0.000   0.000   0.004  -0.000
  0.000  -0.034  -0.000   0.000   0.011   0.000   0.042  -0.000   0.000   0.001   0.000   0.000   0.033   0.000   0.000  -0.003
  0.000  -0.000  -0.026  -0.000   0.000   0.000  -0.000   0.059   0.000  -0.000  -0.074   0.014  -0.000   0.046   0.000   0.000
  0.011   0.000  -0.000  -0.034   0.000   0.001  -0.000   0.000   0.042  -0.000   0.000  -0.000   0.000   0.000   0.033   0.000
  0.000   0.012   0.000  -0.000   0.000   0.000   0.001  -0.000  -0.000   0.059   0.000  -0.000   0.004  -0.000  -0.000  -0.000
 -0.000  -0.000   0.012  -0.000  -0.000  -0.000   0.000  -0.074   0.000   0.000   1.226  -0.288  -0.000   0.072   0.000   0.000
  0.000   0.000   0.034   0.000  -0.000   0.000   0.000   0.014  -0.000  -0.000  -0.288   0.111   0.000  -0.048   0.000  -0.000
  0.000  -0.000  -0.000  -0.000   0.009   0.000   0.033  -0.000  -0.000   0.004  -0.000   0.000   0.166   0.000   0.000  -0.010
  0.000   0.000   0.034  -0.000  -0.000   0.000  -0.000   0.046   0.000  -0.000   0.072  -0.048   0.000   0.103   0.000  -0.000
  0.009  -0.000   0.000  -0.000   0.000   0.004   0.000   0.000   0.033  -0.000   0.000   0.000   0.000   0.000   0.166  -0.000
 -0.000  -0.004   0.000  -0.000  -0.001  -0.000  -0.003   0.000  -0.000  -0.000   0.000   0.000  -0.010   0.000   0.000   0.001
  0.000   0.000  -0.008  -0.000   0.000   0.000  -0.000  -0.002  -0.000   0.000  -0.013   0.006   0.000  -0.007   0.000   0.000
 -0.001   0.000   0.000  -0.004  -0.000  -0.000  -0.000   0.000  -0.003   0.000  -0.000  -0.000   0.000  -0.000  -0.010   0.000


------------------------ aborting loop because EDIFF is reached ----------------------------------------


    CHARGE:  cpu time    0.0271: real time    0.0273
    FORLOC:  cpu time    0.0007: real time    0.0007
    FORNL :  cpu time    0.1526: real time    0.1536
    STRESS:  cpu time    0.4600: real time    0.4631
    FORCOR:  cpu time    0.0094: real time    0.0094
    FORHAR:  cpu time    0.0029: real time    0.0029
    MIXING:  cpu time    0.0013: real time    0.0013
    OFIELD:  cpu time    0.0000: real time    0.0000

  FORCE on cell =-STRESS in cart. coord.  units (eV):
  Direction    XX          YY          ZZ          XY          YZ          ZX
  --------------------------------------------------------------------------------------
  Alpha Z   194.65170   194.65170   194.65170
  Ewald   13284.77396 13284.77396-16197.96838    -0.00000    -0.00000    -0.00000
  Hartree 14743.97112 14743.97110-13912.16153     0.00001    -0.00001    -0.00001
  E(xc)    -250.18552  -250.18403  -250.68181    -0.00129     0.00017     0.00030
  Local  -28364.53220-28364.53781 29773.54294     0.00486    -0.00082    -0.00142
  n-local  -157.78835  -151.52099  -155.46429     2.87112    -0.32264    -0.04087
  augment   224.87001   224.87881   225.61088    -0.00762     0.00275     0.00476
  Kinetic   326.92439   304.90317   318.16128    -7.85038    -0.36524     0.06374
  Fock        0.00000     0.00000     0.00000     0.00000     0.00000     0.00000
  -------------------------------------------------------------------------------------
  Total      -5.18949    -5.18949    -4.30921     0.00000     0.00000    -0.00000
  in kB     -79.17173   -79.17173   -65.74196     0.00000     0.00000    -0.00000
  external pressure =      -74.70 kB  Pullay stress =        0.00 kB


 VOLUME and BASIS-vectors are now :
 -----------------------------------------------------------------------------
  energy-cutoff  :      250.00
  volume of cell :      105.02
      direct lattice vectors                 reciprocal lattice vectors
     2.573868684  0.000000000  0.000000000     0.388520209 -0.224312248  0.000000000
     1.286934342  2.229035666  0.000000000     0.000000000  0.448624495  0.000000000
     0.000000000  0.000000000 18.304664940     0.000000000  0.000000000  0.054630883

  length of vectors
     2.573868684  2.573868684 18.304664940     0.448624495  0.448624495  0.054630883


 FORCES acting on ions
    electron-ion (+dipol)            ewald-force                    non-local-force                 convergence-correction
 -----------------------------------------------------------------------------------------------
   -.297E-03 -.172E-03 0.313E+04   0.749E-12 0.576E-12 -.313E+04   -.173E-17 0.347E-17 -.117E+01   0.152E-06 0.877E-07 0.427E-02
   -.836E-04 -.483E-04 0.105E+04   -.116E-11 -.753E-12 -.105E+04   -.434E-17 -.520E-17 -.817E+00   0.632E-07 0.365E-07 -.448E-02
   0.836E-04 0.483E-04 -.105E+04   0.119E-11 0.731E-12 0.105E+04   0.477E-17 0.520E-17 0.817E+00   -.632E-07 -.365E-07 0.448E-02
   0.297E-03 0.172E-03 -.313E+04   -.719E-12 -.598E-12 0.313E+04   -.520E-17 -.347E-17 0.117E+01   -.152E-06 -.877E-07 -.427E-02
 -----------------------------------------------------------------------------------------------
   -.611E-12 -.115E-11 0.185E-11   0.596E-13 -.437E-13 0.000E+00   -.651E-17 0.000E+00 0.222E-15   -.200E-12 0.833E-13 -.104E-10
 
 
 POSITION                                       TOTAL-FORCE (eV/Angst)
 -----------------------------------------------------------------------------------
      0.00000      0.00000      6.06054         0.000000      0.000000     -0.022316
      1.28693      0.74301      8.11995        -0.000000      0.000000      0.042266
      2.57387      1.48602     10.18472         0.000000     -0.000000     -0.042266
     -0.00000     -0.00000     12.24413        -0.000000     -0.000000      0.022316
 -----------------------------------------------------------------------------------
    total drift:                               -0.000000     -0.000000     -0.000000


--------------------------------------------------------------------------------------------------------



  FREE ENERGIE OF THE ION-ELECTRON SYSTEM (eV)
  ---------------------------------------------------
  free  energy   TOTEN  =       -13.78447851 eV

  energy  without entropy=      -13.75319598  energy(sigma->0) =      -13.76883725
 
 d Force = 0.7316642E-02[-0.979E-03, 0.156E-01]  d Energy = 0.8150252E-02-0.834E-03
 d Force =-0.3657649E+03[-0.368E+03,-0.363E+03]  d Ewald  =-0.3657663E+03 0.138E-02


--------------------------------------------------------------------------------------------------------


    POTLOK:  cpu time    0.0122: real time    0.0123


--------------------------------------------------------------------------------------------------------


 Quasi-Newton relaxation of ions (Broydens 2nd method)
  g(Force)  = 0.220E-03   g(Stress)= 0.000E+00

 retain information from N=  1 steps
 eigenvalues of (default step * inverse Hessian matrix)
  average eigenvalue of G=   7.0771
 eigenvalue spectrum of G is  7.0771


--------------------------------------------------------------------------------------------------------


  
 reached required accuracy - stopping structural energy minimisation
     LOOP+:  cpu time    3.0609: real time    3.1294
    4ORBIT:  cpu time    0.0000: real time    0.0000

 total amount of memory used by VASP MPI-rank0    35042. kBytes
=======================================================================

   base      :      30000. kBytes
   nonlr-proj:        565. kBytes
   fftplans  :        599. kBytes
   grid      :        842. kBytes
   one-center:         31. kBytes
   wavefun   :       3005. kBytes
 
  
  
 General timing and accounting informations for this job:
 ========================================================
  
                  Total CPU time used (sec):       14.688
                            User time (sec):       14.001
                          System time (sec):        0.686
                         Elapsed time (sec):       17.967
  
                   Maximum memory used (kb):      175700.
                   Average memory used (kb):           0.
  
                          Minor page faults:         6056
                          Major page faults:         1599
                 Voluntary context switches:         4319
