<?xml version="1.0" encoding="ISO-8859-1"?>
<modeling>
 <generator>
  <i name="program" type="string">vasp </i>
  <i name="version" type="string">5.4.4.18Apr17-6-g9f103f2a35  </i>
  <i name="subversion" type="string">(build Jul 15 2019 14:02:39) complex            parallel </i>
  <i name="platform" type="string">TEST </i>
  <i name="date" type="string">2024 10 16 </i>
  <i name="time" type="string">19:02:23 </i>
 </generator>
 <incar>
  <i type="string" name="PREC">normal    ! low/normal/accurate</i>
  <i type="string" name="ALGO"> Fast      ! Algorithm for electronic re</i>
  <i type="int" name="ISPIN">     1</i>
  <i type="int" name="MAXMIX">    80</i>
  <i type="int" name="NELMIN">     4</i>
  <i type="int" name="IBRION">     1</i>
  <i name="EDIFF">      0.00001000</i>
  <i name="EDIFFG">     -0.05000000</i>
  <i type="int" name="NSW">    50</i>
  <i type="int" name="ISIF">     2</i>
  <i name="ENCUT">    250.00000000</i>
  <i type="string" name="LREAL"> Auto      ! Projection in reciprocal sp</i>
  <i type="int" name="ISMEAR">     0</i>
  <i name="SIGMA">      0.20000000</i>
  <i type="logical" name="LWAVE"> F  </i>
  <v type="int" name="KPOINT_BSE">    -1     0     0     0</v>
 </incar>
 <structure name="primitive_cell" >
  <crystal>
   <varray name="basis" >
    <v>       2.57386868       0.00000000       0.00000000 </v>
    <v>       1.28693434       2.22903567       0.00000000 </v>
    <v>       0.00000000       0.00000000      18.30466494 </v>
   </varray>
   <i name="volume">    105.01834914 </i>
   <varray name="rec_basis" >
    <v>       0.38852021      -0.22431225       0.00000000 </v>
    <v>       0.00000000       0.44862450       0.00000000 </v>
    <v>       0.00000000       0.00000000       0.05463088 </v>
   </varray>
  </crystal>
  <varray name="positions" >
   <v>       0.00000000       0.00000000       0.32778530 </v>
   <v>       0.33333333       0.33333333       0.44259510 </v>
   <v>      -0.33333333      -0.33333333      -0.44259510 </v>
   <v>       0.00000000       0.00000000      -0.32778530 </v>
  </varray>
 </structure>
 <varray name="primitive_index" >
  <v type="int" >        1 </v>
  <v type="int" >        2 </v>
  <v type="int" >        3 </v>
  <v type="int" >        4 </v>
 </varray>
 <kpoints>
  <generation param="Gamma">
   <v type="int" name="divisions">      10       10        2 </v>
   <v name="usershift">      0.00000000       0.00000000       0.00000000 </v>
   <v name="genvec1">      0.10000000      -0.00000000       0.00000000 </v>
   <v name="genvec2">      0.00000000       0.10000000       0.00000000 </v>
   <v name="genvec3">      0.00000000       0.00000000       0.50000000 </v>
   <v name="shift">      0.00000000       0.00000000       0.00000000 </v>
  </generation>
  <varray name="kpointlist" >
   <v>       0.00000000       0.00000000       0.00000000 </v>
   <v>       0.10000000       0.00000000       0.00000000 </v>
   <v>       0.20000000       0.00000000       0.00000000 </v>
   <v>       0.30000000       0.00000000       0.00000000 </v>
   <v>       0.40000000       0.00000000       0.00000000 </v>
   <v>       0.50000000       0.00000000       0.00000000 </v>
   <v>       0.20000000       0.10000000       0.00000000 </v>
   <v>       0.30000000       0.10000000       0.00000000 </v>
   <v>       0.40000000       0.10000000       0.00000000 </v>
   <v>       0.50000000       0.10000000       0.00000000 </v>
   <v>       0.40000000       0.20000000       0.00000000 </v>
   <v>       0.50000000       0.20000000       0.00000000 </v>
   <v>      -0.40000000       0.20000000       0.00000000 </v>
   <v>      -0.40000000       0.30000000       0.00000000 </v>
   <v>       0.00000000       0.00000000       0.50000000 </v>
   <v>       0.10000000       0.00000000       0.50000000 </v>
   <v>       0.20000000       0.00000000       0.50000000 </v>
   <v>       0.30000000       0.00000000       0.50000000 </v>
   <v>       0.40000000       0.00000000       0.50000000 </v>
   <v>       0.50000000       0.00000000       0.50000000 </v>
   <v>       0.20000000       0.10000000       0.50000000 </v>
   <v>       0.30000000       0.10000000       0.50000000 </v>
   <v>       0.40000000       0.10000000       0.50000000 </v>
   <v>       0.50000000       0.10000000       0.50000000 </v>
   <v>       0.40000000       0.20000000       0.50000000 </v>
   <v>       0.50000000       0.20000000       0.50000000 </v>
   <v>      -0.40000000       0.20000000       0.50000000 </v>
   <v>      -0.40000000       0.30000000       0.50000000 </v>
  </varray>
  <varray name="weights" >
   <v>       0.00500000 </v>
   <v>       0.03000000 </v>
   <v>       0.03000000 </v>
   <v>       0.03000000 </v>
   <v>       0.03000000 </v>
   <v>       0.01500000 </v>
   <v>       0.03000000 </v>
   <v>       0.06000000 </v>
   <v>       0.06000000 </v>
   <v>       0.06000000 </v>
   <v>       0.03000000 </v>
   <v>       0.06000000 </v>
   <v>       0.03000000 </v>
   <v>       0.03000000 </v>
   <v>       0.00500000 </v>
   <v>       0.03000000 </v>
   <v>       0.03000000 </v>
   <v>       0.03000000 </v>
   <v>       0.03000000 </v>
   <v>       0.01500000 </v>
   <v>       0.03000000 </v>
   <v>       0.06000000 </v>
   <v>       0.06000000 </v>
   <v>       0.06000000 </v>
   <v>       0.03000000 </v>
   <v>       0.06000000 </v>
   <v>       0.03000000 </v>
   <v>       0.03000000 </v>
  </varray>
 </kpoints>
 <parameters>
  <separator name="general" >
   <i type="string" name="SYSTEM">unknown system</i>
   <i type="logical" name="LCOMPAT"> F  </i>
  </separator>
  <separator name="electronic" >
   <i type="string" name="PREC">normal</i>
   <i name="ENMAX">    250.00000000</i>
   <i name="ENAUG">    516.45600000</i>
   <i name="EDIFF">      0.00001000</i>
   <i type="int" name="IALGO">    68</i>
   <i type="int" name="IWAVPR">    11</i>
   <i type="int" name="NBANDS">    26</i>
   <i name="NELECT">     44.00000000</i>
   <i type="int" name="TURBO">     0</i>
   <i type="int" name="IRESTART">     0</i>
   <i type="int" name="NREBOOT">     0</i>
   <i type="int" name="NMIN">     0</i>
   <i name="EREF">      0.00000000</i>
   <separator name="electronic smearing" >
    <i type="int" name="ISMEAR">     0</i>
    <i name="SIGMA">      0.20000000</i>
    <i name="KSPACING">      0.50000000</i>
    <i type="logical" name="KGAMMA"> T  </i>
   </separator>
   <separator name="electronic projectors" >
    <i type="logical" name="LREAL"> T  </i>
    <v name="ROPT">     -0.00050000</v>
    <i type="int" name="LMAXPAW">  -100</i>
    <i type="int" name="LMAXMIX">     2</i>
    <i type="logical" name="NLSPLINE"> F  </i>
   </separator>
   <separator name="electronic startup" >
    <i type="int" name="ISTART">     0</i>
    <i type="int" name="ICHARG">     2</i>
    <i type="int" name="INIWAV">     1</i>
   </separator>
   <separator name="electronic spin" >
    <i type="int" name="ISPIN">     1</i>
    <i type="logical" name="LNONCOLLINEAR"> F  </i>
    <v name="MAGMOM">      1.00000000      1.00000000      1.00000000      1.00000000</v>
    <i name="NUPDOWN">     -1.00000000</i>
    <i type="logical" name="LSORBIT"> F  </i>
    <v name="SAXIS">      0.00000000      0.00000000      1.00000000</v>
    <i type="logical" name="LSPIRAL"> F  </i>
    <v name="QSPIRAL">      0.00000000      0.00000000      0.00000000</v>
    <i type="logical" name="LZEROZ"> F  </i>
   </separator>
   <separator name="electronic exchange-correlation" >
    <i type="logical" name="LASPH"> F  </i>
    <i type="logical" name="LMETAGGA"> F  </i>
   </separator>
   <separator name="electronic convergence" >
    <i type="int" name="NELM">    60</i>
    <i type="int" name="NELMDL">    -5</i>
    <i type="int" name="NELMIN">     4</i>
    <i name="ENINI">    250.00000000</i>
    <separator name="electronic convergence detail" >
     <i type="logical" name="LDIAG"> T  </i>
     <i type="logical" name="LSUBROT"> F  </i>
     <i name="WEIMIN">      0.00100000</i>
     <i name="EBREAK">      0.00000010</i>
     <i name="DEPER">      0.30000000</i>
     <i type="int" name="NRMM">     4</i>
     <i name="TIME">      0.40000000</i>
    </separator>
   </separator>
   <separator name="electronic mixer" >
    <i name="AMIX">      0.40000000</i>
    <i name="BMIX">      1.00000000</i>
    <i name="AMIN">      0.10000000</i>
    <i name="AMIX_MAG">      1.60000000</i>
    <i name="BMIX_MAG">      1.00000000</i>
    <separator name="electronic mixer details" >
     <i type="int" name="IMIX">     4</i>
     <i type="logical" name="MIXFIRST"> F  </i>
     <i type="int" name="MAXMIX">    80</i>
     <i name="WC">    100.00000000</i>
     <i type="int" name="INIMIX">     1</i>
     <i type="int" name="MIXPRE">     1</i>
     <i type="int" name="MREMOVE">     5</i>
    </separator>
   </separator>
   <separator name="electronic dipolcorrection" >
    <i type="logical" name="LDIPOL"> F  </i>
    <i type="logical" name="LMONO"> F  </i>
    <i type="int" name="IDIPOL">     0</i>
    <i name="EPSILON">      1.00000000</i>
    <v name="DIPOL">   -100.00000000   -100.00000000   -100.00000000</v>
    <i name="EFIELD">      0.00000000</i>
   </separator>
  </separator>
  <separator name="grids" >
   <i type="int" name="NGX">    10</i>
   <i type="int" name="NGY">    10</i>
   <i type="int" name="NGZ">    72</i>
   <i type="int" name="NGXF">    20</i>
   <i type="int" name="NGYF">    20</i>
   <i type="int" name="NGZF">   144</i>
   <i type="logical" name="ADDGRID"> F  </i>
  </separator>
  <separator name="ionic" >
   <i type="int" name="NSW">    50</i>
   <i type="int" name="IBRION">     1</i>
   <i type="int" name="MDALGO">     0</i>
   <i type="int" name="ISIF">     2</i>
   <i name="PSTRESS">      0.00000000</i>
   <i name="EDIFFG">     -0.05000000</i>
   <i type="int" name="NFREE">     0</i>
   <i name="POTIM">      0.50000000</i>
   <i name="SMASS">     -3.00000000</i>
   <i name="SCALEE">      1.00000000</i>
  </separator>
  <separator name="ionic md" >
   <i name="TEBEG">      0.00010000</i>
   <i name="TEEND">      0.00010000</i>
   <i type="int" name="NBLOCK">     1</i>
   <i type="int" name="KBLOCK">    50</i>
   <i type="int" name="NPACO">   256</i>
   <i name="APACO">     16.00000000</i>
  </separator>
  <separator name="symmetry" >
   <i type="int" name="ISYM">     2</i>
   <i name="SYMPREC">      0.00001000</i>
  </separator>
  <separator name="dos" >
   <i type="int" name="LORBIT">     0</i>
   <v name="RWIGS">     -1.00000000</v>
   <i type="int" name="NEDOS">   301</i>
   <i name="EMIN">     10.00000000</i>
   <i name="EMAX">    -10.00000000</i>
   <i name="EFERMI">      0.00000000</i>
  </separator>
  <separator name="writing" >
   <i type="int" name="NWRITE">     2</i>
   <i type="logical" name="LWAVE"> F  </i>
   <i type="logical" name="LDOWNSAMPLE"> F  </i>
   <i type="logical" name="LCHARG"> T  </i>
   <i type="logical" name="LPARD"> F  </i>
   <i type="logical" name="LVTOT"> F  </i>
   <i type="logical" name="LVHAR"> F  </i>
   <i type="logical" name="LELF"> F  </i>
   <i type="logical" name="LOPTICS"> F  </i>
   <v name="STM">      0.00000000      0.00000000      0.00000000      0.00000000      0.00000000      0.00000000      0.00000000</v>
  </separator>
  <separator name="performance" >
   <i type="int" name="NPAR">     2</i>
   <i type="int" name="NSIM">     4</i>
   <i type="int" name="NBLK">    -1</i>
   <i type="logical" name="LPLANE"> T  </i>
   <i type="logical" name="LSCALAPACK"> T  </i>
   <i type="logical" name="LSCAAWARE"> F  </i>
   <i type="logical" name="LSCALU"> F  </i>
   <i type="logical" name="LASYNC"> F  </i>
   <i type="logical" name="LORBITALREAL"> F  </i>
  </separator>
  <separator name="miscellaneous" >
   <i type="int" name="IDIOT">     3</i>
   <i type="int" name="ISPECIAL">     0</i>
   <i type="logical" name="LMUSIC"> F  </i>
   <v name="POMASS">     63.54600000</v>
   <v name="DARWINR">      0.00000000</v>
   <v name="DARWINV">      1.00000000</v>
   <i type="logical" name="LCORR"> T  </i>
  </separator>
  <i type="logical" name="GGA_COMPAT"> T  </i>
  <i type="logical" name="LBERRY"> F  </i>
  <i type="int" name="ICORELEVEL">     0</i>
  <i type="logical" name="LDAU"> F  </i>
  <i type="int" name="I_CONSTRAINED_M">     0</i>
  <separator name="electronic exchange-correlation" >
   <i type="string" name="GGA">--</i>
   <i type="int" name="VOSKOWN">     0</i>
   <i type="logical" name="LHFCALC"> F  </i>
   <i type="string" name="PRECFOCK"></i>
   <i type="logical" name="LSYMGRAD"> F  </i>
   <i type="logical" name="LHFONE"> F  </i>
   <i type="logical" name="LRHFCALC"> F  </i>
   <i type="logical" name="LTHOMAS"> F  </i>
   <i type="logical" name="LMODELHF"> F  </i>
   <i name="ENCUT4O">     -1.00000000</i>
   <i type="int" name="EXXOEP">     0</i>
   <i type="int" name="FOURORBIT">     0</i>
   <i name="AEXX">      0.00000000</i>
   <i name="HFALPHA">      0.00000000</i>
   <i name="MCALPHA">      0.00000000</i>
   <i name="ALDAX">      1.00000000</i>
   <i name="AGGAX">      1.00000000</i>
   <i name="ALDAC">      1.00000000</i>
   <i name="AGGAC">      1.00000000</i>
   <i type="int" name="NKREDX">     1</i>
   <i type="int" name="NKREDY">     1</i>
   <i type="int" name="NKREDZ">     1</i>
   <i type="logical" name="SHIFTRED"> F  </i>
   <i type="logical" name="ODDONLY"> F  </i>
   <i type="logical" name="EVENONLY"> F  </i>
   <i type="int" name="LMAXFOCK">     0</i>
   <i type="int" name="NMAXFOCKAE">     0</i>
   <i type="logical" name="LFOCKAEDFT"> F  </i>
   <i name="HFSCREEN">      0.00000000</i>
   <i name="HFSCREENC">      0.00000000</i>
   <i type="int" name="NBANDSGWLOW">     0</i>
  </separator>
  <separator name="vdW DFT" >
   <i type="logical" name="LUSE_VDW"> F  </i>
   <i name="Zab_VDW">     -0.84910000</i>
   <i name="PARAM1">      0.12340000</i>
   <i name="PARAM2">      1.00000000</i>
   <i name="PARAM3">      0.00000000</i>
  </separator>
  <separator name="model GW" >
   <i type="int" name="MODEL_GW">     0</i>
   <i name="MODEL_EPS0">     15.75275237</i>
   <i name="MODEL_ALPHA">      1.00000000</i>
  </separator>
  <separator name="linear response parameters" >
   <i type="logical" name="LEPSILON"> F  </i>
   <i type="logical" name="LRPA"> F  </i>
   <i type="logical" name="LNABLA"> F  </i>
   <i type="logical" name="LVEL"> F  </i>
   <i type="int" name="KINTER">     0</i>
   <i name="CSHIFT">      0.10000000</i>
   <i name="OMEGAMAX">     -1.00000000</i>
   <i name="DEG_THRESHOLD">      0.00200000</i>
   <i name="RTIME">     -0.10000000</i>
   <i name="WPLASMAI">      0.00000000</i>
   <v name="DFIELD">      0.00000000      0.00000000      0.00000000</v>
   <v name="WPLASMA">      0.00000000      0.00000000      0.00000000      0.00000000      0.00000000      0.00000000      0.00000000      0.00000000      0.00000000</v>
  </separator>
  <separator name="orbital magnetization" >
   <i type="logical" name="NUCIND"> F  </i>
   <v name="MAGPOS">      0.00000000      0.00000000      0.00000000</v>
   <i type="logical" name="LNICSALL"> T  </i>
   <i type="logical" name="ORBITALMAG"> F  </i>
   <i type="logical" name="LMAGBLOCH"> F  </i>
   <i type="logical" name="LCHIMAG"> F  </i>
   <i type="logical" name="LGAUGE"> T  </i>
   <i type="int" name="MAGATOM">     0</i>
   <v name="MAGDIPOL">      0.00000000      0.00000000      0.00000000</v>
   <v name="AVECCONST">      0.00000000      0.00000000      0.00000000</v>
  </separator>
  <separator name="response functions" >
   <i type="logical" name="LADDER"> F  </i>
   <i type="logical" name="LRPAFORCE"> F  </i>
   <i type="logical" name="LFXC"> F  </i>
   <i type="logical" name="LHARTREE"> T  </i>
   <i type="int" name="IBSE">     0</i>
   <v type="int" name="KPOINT">    -1     0     0     0</v>
   <i type="logical" name="LTCTE"> F  </i>
   <i type="logical" name="LTETE"> F  </i>
   <i type="logical" name="LTRIPLET"> F  </i>
   <i type="logical" name="LFXCEPS"> F  </i>
   <i type="logical" name="LFXHEG"> F  </i>
   <i type="int" name="NATURALO">     2</i>
   <i type="logical" name="L2ORDER"> F  </i>
   <i type="logical" name="LMP2LT"> F  </i>
   <i type="logical" name="LUSEW"> F  </i>
   <i name="ENCUTGW">     -2.00000000</i>
   <i name="ENCUTGWSOFT">     -2.00000000</i>
   <i name="ENCUTLF">     -1.00000000</i>
   <i type="int" name="LMAXMP2">    -1</i>
   <i name="SCISSOR">      0.00000000</i>
   <i type="int" name="NOMEGA">     0</i>
   <i type="int" name="NOMEGAR">     0</i>
   <i type="int" name="NBANDSGW">    -1</i>
   <i type="int" name="NBANDSO">    -1</i>
   <i type="int" name="NBANDSV">    -1</i>
   <i type="int" name="NELM">     1</i>
   <i type="int" name="NELMHF">     1</i>
   <i type="int" name="DIM">     3</i>
   <i type="int" name="ANTIRES">     0</i>
   <i name="OMEGAMAX">    -30.00000000</i>
   <i name="OMEGAMIN">    -30.00000000</i>
   <i name="OMEGATL">   -200.00000000</i>
   <i type="int" name="OMEGAGRID">   140</i>
   <i name="CSHIFT">     -0.10000000</i>
   <i type="logical" name="SELFENERGY"> F  </i>
   <i type="logical" name="LSPECTRAL"> F  </i>
   <i type="logical" name="LSPECTRALGW"> F  </i>
   <i type="logical" name="LSINGLES"> F  </i>
   <i type="logical" name="LFERMIGW"> F  </i>
   <i type="logical" name="ODDONLYGW"> F  </i>
   <i type="logical" name="EVENONLYGW"> F  </i>
   <i type="int" name="NKREDLFX">     1</i>
   <i type="int" name="NKREDLFY">     1</i>
   <i type="int" name="NKREDLFZ">     1</i>
   <i type="int" name="MAXMEM">  2800</i>
   <i type="int" name="TELESCOPE">     0</i>
   <i type="int" name="TAUPAR">     1</i>
   <i type="int" name="OMEGAPAR">    -1</i>
   <i name="LAMBDA">      1.00000000</i>
  </separator>
  <separator name="External order field" >
   <i name="OFIELD_KAPPA">      0.00000000</i>
   <v name="OFIELD_K">      0.00000000      0.00000000      0.00000000</v>
   <i name="OFIELD_Q6_NEAR">      0.00000000</i>
   <i name="OFIELD_Q6_FAR">      0.00000000</i>
   <i name="OFIELD_A">      0.00000000</i>
  </separator>
 </parameters>
 <atominfo>
  <atoms>       4 </atoms>
  <types>       1 </types>
  <array name="atoms" >
   <dimension dim="1">ion</dimension>
   <field type="string">element</field>
   <field type="int">atomtype</field>
   <set>
    <rc><c>Cu</c><c>   1</c></rc>
    <rc><c>Cu</c><c>   1</c></rc>
    <rc><c>Cu</c><c>   1</c></rc>
    <rc><c>Cu</c><c>   1</c></rc>
   </set>
  </array>
  <array name="atomtypes" >
   <dimension dim="1">type</dimension>
   <field type="int">atomspertype</field>
   <field type="string">element</field>
   <field>mass</field>
   <field>valence</field>
   <field type="string">pseudopotential</field>
   <set>
    <rc><c>   4</c><c>Cu</c><c>     63.54600000</c><c>     11.00000000</c><c> PAW_PBE Cu 05Jan2001                   </c></rc>
   </set>
  </array>
 </atominfo>
 <structure name="initialpos" >
  <crystal>
   <varray name="basis" >
    <v>       2.57386868       0.00000000       0.00000000 </v>
    <v>       1.28693434       2.22903567       0.00000000 </v>
    <v>       0.00000000       0.00000000      18.30466494 </v>
   </varray>
   <i name="volume">    105.01834914 </i>
   <varray name="rec_basis" >
    <v>       0.38852021      -0.22431225       0.00000000 </v>
    <v>       0.00000000       0.44862450       0.00000000 </v>
    <v>       0.00000000       0.00000000       0.05463088 </v>
   </varray>
  </crystal>
  <varray name="positions" >
   <v>       0.00000000       0.00000000       0.32778530 </v>
   <v>       0.33333333       0.33333333       0.44259510 </v>
   <v>       0.66666667       0.66666667       0.55740490 </v>
   <v>       0.00000000       0.00000000       0.67221470 </v>
  </varray>
 </structure>
 <calculation>
  <scstep>
   <time name="dav">    0.51    0.58</time>
   <time name="total">    0.52    0.64</time>
   <energy>
    <i name="alphaZ">    194.65170275 </i>
    <i name="ewald">   9957.40185099 </i>
    <i name="hartreedc"> -15219.75389242 </i>
    <i name="XCdc">    174.42363897 </i>
    <i name="pawpsdc">   4328.20916945 </i>
    <i name="pawaedc">  -4904.30802700 </i>
    <i name="eentropy">     -0.04660682 </i>
    <i name="bandstr">    106.64293677 </i>
    <i name="atom">   5563.54799995 </i>
    <i name="e_fr_energy">    200.76877264 </i>
    <i name="e_wo_entrp">    200.81537945 </i>
    <i name="e_0_energy">    200.79207604 </i>
   </energy>
  </scstep>
  <scstep>
   <time name="dav">    0.48    0.48</time>
   <time name="total">    0.48    0.49</time>
   <energy>
    <i name="e_fr_energy">     -6.60254903 </i>
    <i name="e_wo_entrp">     -6.55796713 </i>
    <i name="e_0_energy">     -6.58025808 </i>
   </energy>
  </scstep>
  <scstep>
   <time name="dav">    0.49    0.49</time>
   <time name="total">    0.49    0.49</time>
   <energy>
    <i name="e_fr_energy">    -16.92627460 </i>
    <i name="e_wo_entrp">    -16.86568262 </i>
    <i name="e_0_energy">    -16.89597861 </i>
   </energy>
  </scstep>
  <scstep>
   <time name="dav">    0.50    0.50</time>
   <time name="total">    0.50    0.51</time>
   <energy>
    <i name="e_fr_energy">    -17.05294520 </i>
    <i name="e_wo_entrp">    -16.99018844 </i>
    <i name="e_0_energy">    -17.02156682 </i>
   </energy>
  </scstep>
  <scstep>
   <time name="dav">    0.51    0.52</time>
   <time name="total">    0.54    0.55</time>
   <energy>
    <i name="e_fr_energy">    -17.05375701 </i>
    <i name="e_wo_entrp">    -16.99099265 </i>
    <i name="e_0_energy">    -17.02237483 </i>
   </energy>
  </scstep>
  <scstep>
   <time name="diag">    0.11    0.11</time>
   <time name="diis">    0.26    0.26</time>
   <time name="orth">    0.01    0.01</time>
   <time name="total">    0.42    0.43</time>
   <energy>
    <i name="e_fr_energy">    -15.42514792 </i>
    <i name="e_wo_entrp">    -15.39655173 </i>
    <i name="e_0_energy">    -15.41084982 </i>
   </energy>
  </scstep>
  <scstep>
   <time name="diag">    0.11    0.11</time>
   <time name="diis">    0.26    0.26</time>
   <time name="orth">    0.01    0.01</time>
   <time name="total">    0.42    0.42</time>
   <energy>
    <i name="e_fr_energy">    -13.81311124 </i>
    <i name="e_wo_entrp">    -13.77673987 </i>
    <i name="e_0_energy">    -13.79492555 </i>
   </energy>
  </scstep>
  <scstep>
   <time name="diag">    0.11    0.11</time>
   <time name="diis">    0.26    0.26</time>
   <time name="orth">    0.01    0.01</time>
   <time name="total">    0.42    0.43</time>
   <energy>
    <i name="e_fr_energy">    -13.79452771 </i>
    <i name="e_wo_entrp">    -13.75669683 </i>
    <i name="e_0_energy">    -13.77561227 </i>
   </energy>
  </scstep>
  <scstep>
   <time name="diag">    0.11    0.11</time>
   <time name="diis">    0.26    0.26</time>
   <time name="orth">    0.01    0.01</time>
   <time name="total">    0.42    0.42</time>
   <energy>
    <i name="e_fr_energy">    -13.78229121 </i>
    <i name="e_wo_entrp">    -13.74221874 </i>
    <i name="e_0_energy">    -13.76225498 </i>
   </energy>
  </scstep>
  <scstep>
   <time name="diag">    0.11    0.11</time>
   <time name="diis">    0.26    0.26</time>
   <time name="orth">    0.01    0.01</time>
   <time name="total">    0.42    0.43</time>
   <energy>
    <i name="e_fr_energy">    -13.77522799 </i>
    <i name="e_wo_entrp">    -13.73801326 </i>
    <i name="e_0_energy">    -13.75662062 </i>
   </energy>
  </scstep>
  <scstep>
   <time name="diag">    0.11    0.11</time>
   <time name="diis">    0.26    0.26</time>
   <time name="orth">    0.01    0.01</time>
   <time name="total">    0.42    0.42</time>
   <energy>
    <i name="e_fr_energy">    -13.77398517 </i>
    <i name="e_wo_entrp">    -13.73549625 </i>
    <i name="e_0_energy">    -13.75474071 </i>
   </energy>
  </scstep>
  <scstep>
   <time name="diag">    0.11    0.11</time>
   <time name="diis">    0.25    0.26</time>
   <time name="orth">    0.01    0.01</time>
   <time name="total">    0.42    0.45</time>
   <energy>
    <i name="e_fr_energy">    -13.77388429 </i>
    <i name="e_wo_entrp">    -13.73553470 </i>
    <i name="e_0_energy">    -13.75470949 </i>
   </energy>
  </scstep>
  <scstep>
   <time name="diag">    0.11    0.11</time>
   <time name="diis">    0.25    0.25</time>
   <time name="orth">    0.01    0.01</time>
   <time name="total">    0.41    0.41</time>
   <energy>
    <i name="e_fr_energy">    -13.77384935 </i>
    <i name="e_wo_entrp">    -13.73523772 </i>
    <i name="e_0_energy">    -13.75454354 </i>
   </energy>
  </scstep>
  <scstep>
   <time name="diag">    0.11    0.11</time>
   <time name="diis">    0.19    0.19</time>
   <time name="orth">    0.01    0.01</time>
   <time name="total">    0.35    0.35</time>
   <energy>
    <i name="e_fr_energy">    -13.77396559 </i>
    <i name="e_wo_entrp">    -13.73524127 </i>
    <i name="e_0_energy">    -13.75460343 </i>
   </energy>
  </scstep>
  <scstep>
   <time name="diag">    0.11    0.11</time>
   <time name="diis">    0.17    0.17</time>
   <time name="orth">    0.01    0.01</time>
   <time name="total">    0.33    0.34</time>
   <energy>
    <i name="e_fr_energy">    -13.77404121 </i>
    <i name="e_wo_entrp">    -13.73538119 </i>
    <i name="e_0_energy">    -13.75471120 </i>
   </energy>
  </scstep>
  <scstep>
   <time name="diag">    0.11    0.11</time>
   <time name="diis">    0.16    0.16</time>
   <time name="orth">    0.01    0.01</time>
   <time name="total">    0.33    0.33</time>
   <energy>
    <i name="e_fr_energy">    -13.77410168 </i>
    <i name="e_wo_entrp">    -13.73547907 </i>
    <i name="e_0_energy">    -13.75479037 </i>
   </energy>
  </scstep>
  <scstep>
   <time name="diag">    0.11    0.11</time>
   <time name="diis">    0.16    0.16</time>
   <time name="orth">    0.01    0.01</time>
   <time name="total">    0.29    0.30</time>
   <energy>
    <i name="alphaZ">    194.65170275 </i>
    <i name="ewald">   9957.40185099 </i>
    <i name="hartreedc"> -15162.91177444 </i>
    <i name="XCdc">    170.45662966 </i>
    <i name="pawpsdc">   4374.59869759 </i>
    <i name="pawaedc">  -4949.96862360 </i>
    <i name="eentropy">     -0.03863165 </i>
    <i name="bandstr">   -161.51195947 </i>
    <i name="atom">   5563.54799995 </i>
    <i name="e_fr_energy">    -13.77410822 </i>
    <i name="e_wo_entrp">    -13.73547657 </i>
    <i name="e_0_energy">    -13.75479240 </i>
   </energy>
  </scstep>
  <structure>
   <crystal>
    <varray name="basis" >
     <v>       2.57386868       0.00000000       0.00000000 </v>
     <v>       1.28693434       2.22903567       0.00000000 </v>
     <v>       0.00000000       0.00000000      18.30466494 </v>
    </varray>
    <i name="volume">    105.01834914 </i>
    <varray name="rec_basis" >
     <v>       0.38852021      -0.22431225       0.00000000 </v>
     <v>       0.00000000       0.44862450       0.00000000 </v>
     <v>       0.00000000       0.00000000       0.05463088 </v>
    </varray>
   </crystal>
   <varray name="positions" >
    <v>       0.00000000       0.00000000       0.32778530 </v>
    <v>       0.33333333       0.33333333       0.44259510 </v>
    <v>       0.66666667       0.66666667       0.55740490 </v>
    <v>       0.00000000       0.00000000       0.67221470 </v>
   </varray>
  </structure>
  <varray name="forces" >
   <v>       0.00000000       0.00000000       0.14998868 </v>
   <v>       0.00000000       0.00000000       0.03802461 </v>
   <v>      -0.00000000      -0.00000000      -0.03802461 </v>
   <v>      -0.00000000      -0.00000000      -0.14998868 </v>
  </varray>
  <varray name="stress" >
   <v>     -83.90314001       0.00000000      -0.00000000 </v>
   <v>       0.00000000     -83.90314001       0.00000000 </v>
   <v>      -0.00000000      -0.00000000     -79.83546116 </v>
  </varray>
  <energy>
   <i name="e_fr_energy">    -13.77410822 </i>
   <i name="e_wo_entrp">    -13.75479240 </i>
   <i name="e_0_energy">     -0.03863165 </i>
  </energy>
  <time name="totalsc">    8.07    8.36</time>
 </calculation>
 <calculation>
  <scstep>
   <time name="dav">    0.48    0.48</time>
   <time name="total">    0.52    0.54</time>
   <energy>
    <i name="alphaZ">    194.65170275 </i>
    <i name="ewald">  10005.81394269 </i>
    <i name="hartreedc"> -15211.23194416 </i>
    <i name="XCdc">    170.47813314 </i>
    <i name="pawpsdc">   4374.60353313 </i>
    <i name="pawaedc">  -4949.97080327 </i>
    <i name="eentropy">     -0.03750072 </i>
    <i name="bandstr">   -161.63134497 </i>
    <i name="atom">   5563.54799995 </i>
    <i name="e_fr_energy">    -13.77628146 </i>
    <i name="e_wo_entrp">    -13.73878074 </i>
    <i name="e_0_energy">    -13.75753110 </i>
   </energy>
  </scstep>
  <scstep>
   <time name="diag">    0.11    0.11</time>
   <time name="diis">    0.26    0.26</time>
   <time name="orth">    0.01    0.01</time>
   <time name="total">    0.42    0.42</time>
   <energy>
    <i name="e_fr_energy">    -13.77637869 </i>
    <i name="e_wo_entrp">    -13.73862370 </i>
    <i name="e_0_energy">    -13.75750119 </i>
   </energy>
  </scstep>
  <scstep>
   <time name="diag">    0.11    0.11</time>
   <time name="diis">    0.25    0.26</time>
   <time name="orth">    0.01    0.01</time>
   <time name="total">    0.42    0.42</time>
   <energy>
    <i name="e_fr_energy">    -13.77632603 </i>
    <i name="e_wo_entrp">    -13.73853921 </i>
    <i name="e_0_energy">    -13.75743262 </i>
   </energy>
  </scstep>
  <scstep>
   <time name="diag">    0.11    0.11</time>
   <time name="diis">    0.17    0.17</time>
   <time name="orth">    0.01    0.01</time>
   <time name="total">    0.30    0.30</time>
   <energy>
    <i name="alphaZ">    194.65170275 </i>
    <i name="ewald">  10005.81394269 </i>
    <i name="hartreedc"> -15211.29417501 </i>
    <i name="XCdc">    170.47396350 </i>
    <i name="pawpsdc">   4375.60249146 </i>
    <i name="pawaedc">  -4951.00283496 </i>
    <i name="eentropy">     -0.03771139 </i>
    <i name="bandstr">   -161.53170725 </i>
    <i name="atom">   5563.54799995 </i>
    <i name="e_fr_energy">    -13.77632826 </i>
    <i name="e_wo_entrp">    -13.73861687 </i>
    <i name="e_0_energy">    -13.75747256 </i>
   </energy>
  </scstep>
  <structure>
   <crystal>
    <varray name="basis" >
     <v>       2.57386868       0.00000000       0.00000000 </v>
     <v>       1.28693434       2.22903567       0.00000000 </v>
     <v>       0.00000000       0.00000000      18.30466494 </v>
    </varray>
    <i name="volume">    105.01834914 </i>
    <varray name="rec_basis" >
     <v>       0.38852021      -0.22431225       0.00000000 </v>
     <v>       0.00000000       0.44862450       0.00000000 </v>
     <v>       0.00000000       0.00000000       0.05463088 </v>
    </varray>
   </crystal>
   <varray name="positions" >
    <v>       0.00000000       0.00000000       0.32818060 </v>
    <v>       0.33333333       0.33333333       0.44269531 </v>
    <v>       0.66666667       0.66666667       0.55730469 </v>
    <v>      -0.00000000      -0.00000000       0.67181940 </v>
   </varray>
  </structure>
  <varray name="forces" >
   <v>       0.00000000       0.00000000       0.13356081 </v>
   <v>      -0.00000000      -0.00000000       0.04149365 </v>
   <v>       0.00000000      -0.00000000      -0.04149365 </v>
   <v>      -0.00000000      -0.00000000      -0.13356081 </v>
  </varray>
  <varray name="stress" >
   <v>     -85.83962815       0.00000000      -0.00000000 </v>
   <v>       0.00000000     -85.83962815       0.00000000 </v>
   <v>       0.00000000      -0.00000000     -80.63973938 </v>
  </varray>
  <energy>
   <i name="e_fr_energy">    -13.77632826 </i>
   <i name="e_wo_entrp">    -13.75747256 </i>
   <i name="e_0_energy">     -0.03771139 </i>
  </energy>
  <time name="totalsc">    2.41    2.47</time>
 </calculation>
 <calculation>
  <scstep>
   <time name="dav">    0.48    0.48</time>
   <time name="total">    0.52    0.54</time>
   <energy>
    <i name="alphaZ">    194.65170275 </i>
    <i name="ewald">  10371.58023917 </i>
    <i name="hartreedc"> -15576.09244595 </i>
    <i name="XCdc">    170.63788777 </i>
    <i name="pawpsdc">   4375.56420486 </i>
    <i name="pawaedc">  -4950.96205997 </i>
    <i name="eentropy">     -0.03027736 </i>
    <i name="bandstr">   -162.67800462 </i>
    <i name="atom">   5563.54799995 </i>
    <i name="e_fr_energy">    -13.78075340 </i>
    <i name="e_wo_entrp">    -13.75047604 </i>
    <i name="e_0_energy">    -13.76561472 </i>
   </energy>
  </scstep>
  <scstep>
   <time name="diag">    0.11    0.11</time>
   <time name="diis">    0.26    0.26</time>
   <time name="orth">    0.01    0.01</time>
   <time name="total">    0.43    0.43</time>
   <energy>
    <i name="e_fr_energy">    -13.78423655 </i>
    <i name="e_wo_entrp">    -13.75279710 </i>
    <i name="e_0_energy">    -13.76851683 </i>
   </energy>
  </scstep>
  <scstep>
   <time name="diag">    0.11    0.11</time>
   <time name="diis">    0.26    0.26</time>
   <time name="orth">    0.01    0.01</time>
   <time name="total">    0.42    0.43</time>
   <energy>
    <i name="e_fr_energy">    -13.78441924 </i>
    <i name="e_wo_entrp">    -13.75316370 </i>
    <i name="e_0_energy">    -13.76879147 </i>
   </energy>
  </scstep>
  <scstep>
   <time name="diag">    0.11    0.11</time>
   <time name="diis">    0.22    0.22</time>
   <time name="orth">    0.01    0.01</time>
   <time name="total">    0.38    0.39</time>
   <energy>
    <i name="e_fr_energy">    -13.78446643 </i>
    <i name="e_wo_entrp">    -13.75315935 </i>
    <i name="e_0_energy">    -13.76881289 </i>
   </energy>
  </scstep>
  <scstep>
   <time name="diag">    0.11    0.11</time>
   <time name="diis">    0.16    0.17</time>
   <time name="orth">    0.01    0.01</time>
   <time name="total">    0.33    0.33</time>
   <energy>
    <i name="e_fr_energy">    -13.78447907 </i>
    <i name="e_wo_entrp">    -13.75320258 </i>
    <i name="e_0_energy">    -13.76884083 </i>
   </energy>
  </scstep>
  <scstep>
   <time name="diag">    0.11    0.11</time>
   <time name="diis">    0.16    0.16</time>
   <time name="orth">    0.01    0.01</time>
   <time name="total">    0.30    0.30</time>
   <energy>
    <i name="alphaZ">    194.65170275 </i>
    <i name="ewald">  10371.58023917 </i>
    <i name="hartreedc"> -15575.78009578 </i>
    <i name="XCdc">    170.58801979 </i>
    <i name="pawpsdc">   4383.44589492 </i>
    <i name="pawaedc">  -4959.08776892 </i>
    <i name="eentropy">     -0.03128253 </i>
    <i name="bandstr">   -162.69918786 </i>
    <i name="atom">   5563.54799995 </i>
    <i name="e_fr_energy">    -13.78447851 </i>
    <i name="e_wo_entrp">    -13.75319598 </i>
    <i name="e_0_energy">    -13.76883725 </i>
   </energy>
  </scstep>
  <structure>
   <crystal>
    <varray name="basis" >
     <v>       2.57386868       0.00000000       0.00000000 </v>
     <v>       1.28693434       2.22903567       0.00000000 </v>
     <v>       0.00000000       0.00000000      18.30466494 </v>
    </varray>
    <i name="volume">    105.01834914 </i>
    <varray name="rec_basis" >
     <v>       0.38852021      -0.22431225       0.00000000 </v>
     <v>       0.00000000       0.44862450       0.00000000 </v>
     <v>       0.00000000       0.00000000       0.05463088 </v>
    </varray>
   </crystal>
   <varray name="positions" >
    <v>       0.00000000       0.00000000       0.33109255 </v>
    <v>       0.33333333       0.33333333       0.44359998 </v>
    <v>       0.66666667       0.66666667       0.55640002 </v>
    <v>      -0.00000000      -0.00000000       0.66890745 </v>
   </varray>
  </structure>
  <varray name="forces" >
   <v>       0.00000000       0.00000000      -0.02231571 </v>
   <v>      -0.00000000       0.00000000       0.04226635 </v>
   <v>       0.00000000      -0.00000000      -0.04226635 </v>
   <v>      -0.00000000      -0.00000000       0.02231571 </v>
  </varray>
  <varray name="stress" >
   <v>     -79.17173322       0.00000000      -0.00000000 </v>
   <v>       0.00000000     -79.17173322       0.00000000 </v>
   <v>      -0.00000000       0.00000000     -65.74195847 </v>
  </varray>
  <energy>
   <i name="e_fr_energy">    -13.78447851 </i>
   <i name="e_wo_entrp">    -13.76883725 </i>
   <i name="e_0_energy">     -0.03128253 </i>
  </energy>
  <time name="totalsc">    3.06    3.13</time>
  <eigenvalues>
   <array>
    <dimension dim="1">band</dimension>
    <dimension dim="2">kpoint</dimension>
    <dimension dim="3">spin</dimension>
    <field>eigene</field>
    <field>occ</field>
    <set>
     <set comment="spin 1">
      <set comment="kpoint 1">
       <r>   -9.6268    1.0000 </r>
       <r>   -8.3639    1.0000 </r>
       <r>   -6.6861    1.0000 </r>
       <r>   -5.8771    1.0000 </r>
       <r>   -3.8617    1.0000 </r>
       <r>   -3.8405    1.0000 </r>
       <r>   -3.7904    1.0000 </r>
       <r>   -3.7901    1.0000 </r>
       <r>   -3.7597    1.0000 </r>
       <r>   -3.7595    1.0000 </r>
       <r>   -3.6005    1.0000 </r>
       <r>   -3.6002    1.0000 </r>
       <r>   -3.5623    1.0000 </r>
       <r>   -3.5483    1.0000 </r>
       <r>   -3.5480    1.0000 </r>
       <r>   -3.0096    1.0000 </r>
       <r>   -3.0095    1.0000 </r>
       <r>   -2.9043    1.0000 </r>
       <r>   -2.9043    1.0000 </r>
       <r>   -2.6307    1.0000 </r>
       <r>   -2.6306    1.0000 </r>
       <r>   -2.4629    1.0000 </r>
       <r>   -2.4629    1.0000 </r>
       <r>   -2.0029    1.0000 </r>
       <r>   -0.9340    0.8650 </r>
       <r>    3.3536    0.0000 </r>
      </set>
      <set comment="kpoint 2">
       <r>   -9.3133    1.0000 </r>
       <r>   -8.0642    1.0000 </r>
       <r>   -6.4139    1.0000 </r>
       <r>   -5.6681    1.0000 </r>
       <r>   -4.0139    1.0000 </r>
       <r>   -3.9738    1.0000 </r>
       <r>   -3.8841    1.0000 </r>
       <r>   -3.7048    1.0000 </r>
       <r>   -3.6914    1.0000 </r>
       <r>   -3.6828    1.0000 </r>
       <r>   -3.6685    1.0000 </r>
       <r>   -3.6448    1.0000 </r>
       <r>   -3.5269    1.0000 </r>
       <r>   -3.5021    1.0000 </r>
       <r>   -3.4511    1.0000 </r>
       <r>   -3.0779    1.0000 </r>
       <r>   -3.0618    1.0000 </r>
       <r>   -2.9679    1.0000 </r>
       <r>   -2.8895    1.0000 </r>
       <r>   -2.8561    1.0000 </r>
       <r>   -2.6291    1.0000 </r>
       <r>   -2.5827    1.0000 </r>
       <r>   -2.4586    1.0000 </r>
       <r>   -1.4669    1.0000 </r>
       <r>   -0.2311    0.0001 </r>
       <r>    3.6606    0.0000 </r>
      </set>
      <set comment="kpoint 3">
       <r>   -8.4113    1.0000 </r>
       <r>   -7.2292    1.0000 </r>
       <r>   -5.7265    1.0000 </r>
       <r>   -5.1691    1.0000 </r>
       <r>   -4.3581    1.0000 </r>
       <r>   -4.1539    1.0000 </r>
       <r>   -4.1154    1.0000 </r>
       <r>   -3.8032    1.0000 </r>
       <r>   -3.7718    1.0000 </r>
       <r>   -3.7223    1.0000 </r>
       <r>   -3.5847    1.0000 </r>
       <r>   -3.4987    1.0000 </r>
       <r>   -3.4085    1.0000 </r>
       <r>   -3.3366    1.0000 </r>
       <r>   -3.2919    1.0000 </r>
       <r>   -3.1871    1.0000 </r>
       <r>   -3.1612    1.0000 </r>
       <r>   -3.0288    1.0000 </r>
       <r>   -2.8971    1.0000 </r>
       <r>   -2.8615    1.0000 </r>
       <r>   -2.6321    1.0000 </r>
       <r>   -2.4453    1.0000 </r>
       <r>   -2.1918    1.0000 </r>
       <r>   -0.5170    0.0325 </r>
       <r>    1.2038    0.0000 </r>
       <r>    4.5288    0.0000 </r>
      </set>
      <set comment="kpoint 4">
       <r>   -7.0963    1.0000 </r>
       <r>   -6.1783    1.0000 </r>
       <r>   -5.2413    1.0000 </r>
       <r>   -4.8717    1.0000 </r>
       <r>   -4.6455    1.0000 </r>
       <r>   -4.3697    1.0000 </r>
       <r>   -4.1409    1.0000 </r>
       <r>   -3.9315    1.0000 </r>
       <r>   -3.6812    1.0000 </r>
       <r>   -3.6238    1.0000 </r>
       <r>   -3.5188    1.0000 </r>
       <r>   -3.4382    1.0000 </r>
       <r>   -3.3348    1.0000 </r>
       <r>   -3.2545    1.0000 </r>
       <r>   -3.0032    1.0000 </r>
       <r>   -2.9170    1.0000 </r>
       <r>   -2.8347    1.0000 </r>
       <r>   -2.7293    1.0000 </r>
       <r>   -2.7197    1.0000 </r>
       <r>   -2.7091    1.0000 </r>
       <r>   -2.6124    1.0000 </r>
       <r>   -2.4274    1.0000 </r>
       <r>   -1.5187    1.0000 </r>
       <r>    0.7290    0.0000 </r>
       <r>    3.0217    0.0000 </r>
       <r>    5.7415    0.0000 </r>
      </set>
      <set comment="kpoint 5">
       <r>   -5.9469    1.0000 </r>
       <r>   -5.5989    1.0000 </r>
       <r>   -5.2122    1.0000 </r>
       <r>   -5.0073    1.0000 </r>
       <r>   -4.8519    1.0000 </r>
       <r>   -4.5787    1.0000 </r>
       <r>   -4.0542    1.0000 </r>
       <r>   -3.8076    1.0000 </r>
       <r>   -3.7098    1.0000 </r>
       <r>   -3.7022    1.0000 </r>
       <r>   -3.3635    1.0000 </r>
       <r>   -3.2751    1.0000 </r>
       <r>   -2.8931    1.0000 </r>
       <r>   -2.8026    1.0000 </r>
       <r>   -2.6104    1.0000 </r>
       <r>   -2.5703    1.0000 </r>
       <r>   -2.5588    1.0000 </r>
       <r>   -2.4587    1.0000 </r>
       <r>   -2.4219    1.0000 </r>
       <r>   -2.3701    1.0000 </r>
       <r>   -2.3141    1.0000 </r>
       <r>   -1.7656    1.0000 </r>
       <r>   -0.2577    0.0001 </r>
       <r>    2.0105    0.0000 </r>
       <r>    4.1158    0.0000 </r>
       <r>    4.8526    0.0000 </r>
      </set>
      <set comment="kpoint 6">
       <r>   -5.6285    1.0000 </r>
       <r>   -5.5001    1.0000 </r>
       <r>   -5.1089    1.0000 </r>
       <r>   -5.0706    1.0000 </r>
       <r>   -5.0256    1.0000 </r>
       <r>   -4.6577    1.0000 </r>
       <r>   -4.0642    1.0000 </r>
       <r>   -3.8536    1.0000 </r>
       <r>   -3.7467    1.0000 </r>
       <r>   -3.5493    1.0000 </r>
       <r>   -3.2916    1.0000 </r>
       <r>   -3.2413    1.0000 </r>
       <r>   -2.7790    1.0000 </r>
       <r>   -2.7048    1.0000 </r>
       <r>   -2.5111    1.0000 </r>
       <r>   -2.5102    1.0000 </r>
       <r>   -2.4510    1.0000 </r>
       <r>   -2.3867    1.0000 </r>
       <r>   -2.2998    1.0000 </r>
       <r>   -2.2830    1.0000 </r>
       <r>   -1.0296    0.9624 </r>
       <r>   -0.0769    0.0000 </r>
       <r>    0.4896    0.0000 </r>
       <r>    0.7558    0.0000 </r>
       <r>    3.4106    0.0000 </r>
       <r>    4.2252    0.0000 </r>
      </set>
      <set comment="kpoint 7">
       <r>   -8.7040    1.0000 </r>
       <r>   -7.4932    1.0000 </r>
       <r>   -5.9226    1.0000 </r>
       <r>   -5.3025    1.0000 </r>
       <r>   -4.2176    1.0000 </r>
       <r>   -4.1602    1.0000 </r>
       <r>   -4.0477    1.0000 </r>
       <r>   -3.8092    1.0000 </r>
       <r>   -3.7625    1.0000 </r>
       <r>   -3.7305    1.0000 </r>
       <r>   -3.6223    1.0000 </r>
       <r>   -3.5279    1.0000 </r>
       <r>   -3.4774    1.0000 </r>
       <r>   -3.3057    1.0000 </r>
       <r>   -3.2812    1.0000 </r>
       <r>   -3.1933    1.0000 </r>
       <r>   -3.1612    1.0000 </r>
       <r>   -3.0998    1.0000 </r>
       <r>   -2.9072    1.0000 </r>
       <r>   -2.7598    1.0000 </r>
       <r>   -2.7291    1.0000 </r>
       <r>   -2.4987    1.0000 </r>
       <r>   -2.2754    1.0000 </r>
       <r>   -0.7923    0.5404 </r>
       <r>    0.7794    0.0000 </r>
       <r>    4.2811    0.0000 </r>
      </set>
      <set comment="kpoint 8">
       <r>   -7.5761    1.0000 </r>
       <r>   -6.5103    1.0000 </r>
       <r>   -5.2689    1.0000 </r>
       <r>   -4.8326    1.0000 </r>
       <r>   -4.4836    1.0000 </r>
       <r>   -4.2990    1.0000 </r>
       <r>   -4.2418    1.0000 </r>
       <r>   -3.9471    1.0000 </r>
       <r>   -3.8747    1.0000 </r>
       <r>   -3.8030    1.0000 </r>
       <r>   -3.6914    1.0000 </r>
       <r>   -3.5103    1.0000 </r>
       <r>   -3.3879    1.0000 </r>
       <r>   -3.2369    1.0000 </r>
       <r>   -3.1946    1.0000 </r>
       <r>   -3.0813    1.0000 </r>
       <r>   -2.8826    1.0000 </r>
       <r>   -2.7958    1.0000 </r>
       <r>   -2.7466    1.0000 </r>
       <r>   -2.6721    1.0000 </r>
       <r>   -2.6430    1.0000 </r>
       <r>   -2.5015    1.0000 </r>
       <r>   -1.7402    1.0000 </r>
       <r>    0.2747    0.0000 </r>
       <r>    2.3531    0.0000 </r>
       <r>    5.2867    0.0000 </r>
      </set>
      <set comment="kpoint 9">
       <r>   -6.2637    1.0000 </r>
       <r>   -5.6599    1.0000 </r>
       <r>   -5.1190    1.0000 </r>
       <r>   -4.8527    1.0000 </r>
       <r>   -4.6358    1.0000 </r>
       <r>   -4.4601    1.0000 </r>
       <r>   -4.1580    1.0000 </r>
       <r>   -3.9788    1.0000 </r>
       <r>   -3.7714    1.0000 </r>
       <r>   -3.6713    1.0000 </r>
       <r>   -3.5145    1.0000 </r>
       <r>   -3.4046    1.0000 </r>
       <r>   -3.3176    1.0000 </r>
       <r>   -3.1636    1.0000 </r>
       <r>   -2.9189    1.0000 </r>
       <r>   -2.8491    1.0000 </r>
       <r>   -2.7372    1.0000 </r>
       <r>   -2.5648    1.0000 </r>
       <r>   -2.5519    1.0000 </r>
       <r>   -2.4352    1.0000 </r>
       <r>   -2.1944    1.0000 </r>
       <r>   -1.9739    1.0000 </r>
       <r>   -0.6477    0.1785 </r>
       <r>    1.7234    0.0000 </r>
       <r>    4.2621    0.0000 </r>
       <r>    5.7914    0.0000 </r>
      </set>
      <set comment="kpoint 10">
       <r>   -5.5531    1.0000 </r>
       <r>   -5.4068    1.0000 </r>
       <r>   -5.0528    1.0000 </r>
       <r>   -4.9893    1.0000 </r>
       <r>   -4.8448    1.0000 </r>
       <r>   -4.5866    1.0000 </r>
       <r>   -4.1347    1.0000 </r>
       <r>   -3.8185    1.0000 </r>
       <r>   -3.7824    1.0000 </r>
       <r>   -3.6485    1.0000 </r>
       <r>   -3.5019    1.0000 </r>
       <r>   -3.1977    1.0000 </r>
       <r>   -2.9523    1.0000 </r>
       <r>   -2.8536    1.0000 </r>
       <r>   -2.7834    1.0000 </r>
       <r>   -2.6050    1.0000 </r>
       <r>   -2.5524    1.0000 </r>
       <r>   -2.5150    1.0000 </r>
       <r>   -2.4371    1.0000 </r>
       <r>   -2.3611    1.0000 </r>
       <r>   -1.0171    0.9546 </r>
       <r>   -0.3714    0.0020 </r>
       <r>    0.8292    0.0000 </r>
       <r>    1.8789    0.0000 </r>
       <r>    3.7041    0.0000 </r>
       <r>    4.5997    0.0000 </r>
      </set>
      <set comment="kpoint 11">
       <r>   -6.3866    1.0000 </r>
       <r>   -5.6469    1.0000 </r>
       <r>   -4.9945    1.0000 </r>
       <r>   -4.5847    1.0000 </r>
       <r>   -4.5553    1.0000 </r>
       <r>   -4.3381    1.0000 </r>
       <r>   -4.2401    1.0000 </r>
       <r>   -4.0555    1.0000 </r>
       <r>   -3.9100    1.0000 </r>
       <r>   -3.8939    1.0000 </r>
       <r>   -3.8526    1.0000 </r>
       <r>   -3.4885    1.0000 </r>
       <r>   -3.4805    1.0000 </r>
       <r>   -3.2332    1.0000 </r>
       <r>   -3.0687    1.0000 </r>
       <r>   -2.9119    1.0000 </r>
       <r>   -2.8417    1.0000 </r>
       <r>   -2.5816    1.0000 </r>
       <r>   -2.5345    1.0000 </r>
       <r>   -2.4521    1.0000 </r>
       <r>   -2.1247    1.0000 </r>
       <r>   -1.9219    1.0000 </r>
       <r>   -0.7000    0.2907 </r>
       <r>    1.5925    0.0000 </r>
       <r>    4.0301    0.0000 </r>
       <r>    6.5436    0.0000 </r>
      </set>
      <set comment="kpoint 12">
       <r>   -5.3969    1.0000 </r>
       <r>   -5.1831    1.0000 </r>
       <r>   -4.9418    1.0000 </r>
       <r>   -4.7497    1.0000 </r>
       <r>   -4.5498    1.0000 </r>
       <r>   -4.3976    1.0000 </r>
       <r>   -4.2928    1.0000 </r>
       <r>   -4.0361    1.0000 </r>
       <r>   -3.9590    1.0000 </r>
       <r>   -3.6366    1.0000 </r>
       <r>   -3.5644    1.0000 </r>
       <r>   -3.5137    1.0000 </r>
       <r>   -3.4457    1.0000 </r>
       <r>   -3.1923    1.0000 </r>
       <r>   -2.9276    1.0000 </r>
       <r>   -2.8761    1.0000 </r>
       <r>   -2.8007    1.0000 </r>
       <r>   -2.5510    1.0000 </r>
       <r>   -2.4429    1.0000 </r>
       <r>   -2.3679    1.0000 </r>
       <r>   -1.0100    0.9496 </r>
       <r>   -0.3949    0.0034 </r>
       <r>    1.0785    0.0000 </r>
       <r>    3.2445    0.0000 </r>
       <r>    4.7293    0.0000 </r>
       <r>    5.6567    0.0000 </r>
      </set>
      <set comment="kpoint 13">
       <r>   -5.1541    1.0000 </r>
       <r>   -5.1319    1.0000 </r>
       <r>   -4.8254    1.0000 </r>
       <r>   -4.7598    1.0000 </r>
       <r>   -4.6549    1.0000 </r>
       <r>   -4.4383    1.0000 </r>
       <r>   -4.3424    1.0000 </r>
       <r>   -3.9496    1.0000 </r>
       <r>   -3.9278    1.0000 </r>
       <r>   -3.6698    1.0000 </r>
       <r>   -3.5928    1.0000 </r>
       <r>   -3.3131    1.0000 </r>
       <r>   -3.2664    1.0000 </r>
       <r>   -3.1982    1.0000 </r>
       <r>   -2.9063    1.0000 </r>
       <r>   -2.7605    1.0000 </r>
       <r>   -2.6334    1.0000 </r>
       <r>   -2.5402    1.0000 </r>
       <r>   -2.5165    1.0000 </r>
       <r>   -2.4274    1.0000 </r>
       <r>    0.7326    0.0000 </r>
       <r>    1.1796    0.0000 </r>
       <r>    1.7402    0.0000 </r>
       <r>    2.2958    0.0000 </r>
       <r>    3.9559    0.0000 </r>
       <r>    4.8410    0.0000 </r>
      </set>
      <set comment="kpoint 14">
       <r>   -4.9046    1.0000 </r>
       <r>   -4.8519    1.0000 </r>
       <r>   -4.7926    1.0000 </r>
       <r>   -4.6229    1.0000 </r>
       <r>   -4.5420    1.0000 </r>
       <r>   -4.5000    1.0000 </r>
       <r>   -4.3533    1.0000 </r>
       <r>   -4.0324    1.0000 </r>
       <r>   -3.9766    1.0000 </r>
       <r>   -3.6539    1.0000 </r>
       <r>   -3.5817    1.0000 </r>
       <r>   -3.5773    1.0000 </r>
       <r>   -3.5646    1.0000 </r>
       <r>   -3.1373    1.0000 </r>
       <r>   -2.9624    1.0000 </r>
       <r>   -2.9439    1.0000 </r>
       <r>   -2.7081    1.0000 </r>
       <r>   -2.5599    1.0000 </r>
       <r>   -2.5201    1.0000 </r>
       <r>   -2.4619    1.0000 </r>
       <r>    0.9694    0.0000 </r>
       <r>    1.8527    0.0000 </r>
       <r>    3.2004    0.0000 </r>
       <r>    3.8429    0.0000 </r>
       <r>    3.9278    0.0000 </r>
       <r>    4.9034    0.0000 </r>
      </set>
      <set comment="kpoint 15">
       <r>   -9.6268    1.0000 </r>
       <r>   -8.3638    1.0000 </r>
       <r>   -6.6860    1.0000 </r>
       <r>   -5.8772    1.0000 </r>
       <r>   -3.8602    1.0000 </r>
       <r>   -3.8372    1.0000 </r>
       <r>   -3.7889    1.0000 </r>
       <r>   -3.7886    1.0000 </r>
       <r>   -3.7606    1.0000 </r>
       <r>   -3.7604    1.0000 </r>
       <r>   -3.5969    1.0000 </r>
       <r>   -3.5966    1.0000 </r>
       <r>   -3.5630    1.0000 </r>
       <r>   -3.5488    1.0000 </r>
       <r>   -3.5485    1.0000 </r>
       <r>   -3.0115    1.0000 </r>
       <r>   -3.0114    1.0000 </r>
       <r>   -2.9061    1.0000 </r>
       <r>   -2.9061    1.0000 </r>
       <r>   -2.6281    1.0000 </r>
       <r>   -2.6281    1.0000 </r>
       <r>   -2.4647    1.0000 </r>
       <r>   -2.4646    1.0000 </r>
       <r>   -2.0032    1.0000 </r>
       <r>   -0.9332    0.8639 </r>
       <r>    3.1411    0.0000 </r>
      </set>
      <set comment="kpoint 16">
       <r>   -9.3133    1.0000 </r>
       <r>   -8.0642    1.0000 </r>
       <r>   -6.4140    1.0000 </r>
       <r>   -5.6684    1.0000 </r>
       <r>   -4.0143    1.0000 </r>
       <r>   -3.9735    1.0000 </r>
       <r>   -3.8860    1.0000 </r>
       <r>   -3.7045    1.0000 </r>
       <r>   -3.6923    1.0000 </r>
       <r>   -3.6849    1.0000 </r>
       <r>   -3.6697    1.0000 </r>
       <r>   -3.6465    1.0000 </r>
       <r>   -3.5274    1.0000 </r>
       <r>   -3.5028    1.0000 </r>
       <r>   -3.4526    1.0000 </r>
       <r>   -3.0759    1.0000 </r>
       <r>   -3.0623    1.0000 </r>
       <r>   -2.9687    1.0000 </r>
       <r>   -2.8912    1.0000 </r>
       <r>   -2.8558    1.0000 </r>
       <r>   -2.6311    1.0000 </r>
       <r>   -2.5825    1.0000 </r>
       <r>   -2.4616    1.0000 </r>
       <r>   -1.4674    1.0000 </r>
       <r>   -0.2303    0.0001 </r>
       <r>    3.4142    0.0000 </r>
      </set>
      <set comment="kpoint 17">
       <r>   -8.4113    1.0000 </r>
       <r>   -7.2292    1.0000 </r>
       <r>   -5.7264    1.0000 </r>
       <r>   -5.1692    1.0000 </r>
       <r>   -4.3603    1.0000 </r>
       <r>   -4.1544    1.0000 </r>
       <r>   -4.1140    1.0000 </r>
       <r>   -3.8021    1.0000 </r>
       <r>   -3.7716    1.0000 </r>
       <r>   -3.7218    1.0000 </r>
       <r>   -3.5871    1.0000 </r>
       <r>   -3.4996    1.0000 </r>
       <r>   -3.4092    1.0000 </r>
       <r>   -3.3374    1.0000 </r>
       <r>   -3.2909    1.0000 </r>
       <r>   -3.1883    1.0000 </r>
       <r>   -3.1623    1.0000 </r>
       <r>   -3.0292    1.0000 </r>
       <r>   -2.8966    1.0000 </r>
       <r>   -2.8617    1.0000 </r>
       <r>   -2.6341    1.0000 </r>
       <r>   -2.4458    1.0000 </r>
       <r>   -2.1916    1.0000 </r>
       <r>   -0.5173    0.0327 </r>
       <r>    1.2061    0.0000 </r>
       <r>    4.2287    0.0000 </r>
      </set>
      <set comment="kpoint 18">
       <r>   -7.0962    1.0000 </r>
       <r>   -6.1780    1.0000 </r>
       <r>   -5.2412    1.0000 </r>
       <r>   -4.8718    1.0000 </r>
       <r>   -4.6459    1.0000 </r>
       <r>   -4.3696    1.0000 </r>
       <r>   -4.1399    1.0000 </r>
       <r>   -3.9293    1.0000 </r>
       <r>   -3.6809    1.0000 </r>
       <r>   -3.6266    1.0000 </r>
       <r>   -3.5185    1.0000 </r>
       <r>   -3.4382    1.0000 </r>
       <r>   -3.3341    1.0000 </r>
       <r>   -3.2592    1.0000 </r>
       <r>   -3.0048    1.0000 </r>
       <r>   -2.9192    1.0000 </r>
       <r>   -2.8354    1.0000 </r>
       <r>   -2.7296    1.0000 </r>
       <r>   -2.7180    1.0000 </r>
       <r>   -2.7105    1.0000 </r>
       <r>   -2.6150    1.0000 </r>
       <r>   -2.4289    1.0000 </r>
       <r>   -1.5181    1.0000 </r>
       <r>    0.7289    0.0000 </r>
       <r>    3.0243    0.0000 </r>
       <r>    5.5489    0.0000 </r>
      </set>
      <set comment="kpoint 19">
       <r>   -5.9467    1.0000 </r>
       <r>   -5.5987    1.0000 </r>
       <r>   -5.2120    1.0000 </r>
       <r>   -5.0056    1.0000 </r>
       <r>   -4.8505    1.0000 </r>
       <r>   -4.5780    1.0000 </r>
       <r>   -4.0552    1.0000 </r>
       <r>   -3.8052    1.0000 </r>
       <r>   -3.7079    1.0000 </r>
       <r>   -3.7016    1.0000 </r>
       <r>   -3.3618    1.0000 </r>
       <r>   -3.2753    1.0000 </r>
       <r>   -2.8897    1.0000 </r>
       <r>   -2.8007    1.0000 </r>
       <r>   -2.6084    1.0000 </r>
       <r>   -2.5683    1.0000 </r>
       <r>   -2.5576    1.0000 </r>
       <r>   -2.4586    1.0000 </r>
       <r>   -2.4213    1.0000 </r>
       <r>   -2.3698    1.0000 </r>
       <r>   -2.3137    1.0000 </r>
       <r>   -1.7651    1.0000 </r>
       <r>   -0.2571    0.0001 </r>
       <r>    2.0108    0.0000 </r>
       <r>    4.1165    0.0000 </r>
       <r>    4.8541    0.0000 </r>
      </set>
      <set comment="kpoint 20">
       <r>   -5.6285    1.0000 </r>
       <r>   -5.5002    1.0000 </r>
       <r>   -5.1091    1.0000 </r>
       <r>   -5.0700    1.0000 </r>
       <r>   -5.0273    1.0000 </r>
       <r>   -4.6566    1.0000 </r>
       <r>   -4.0629    1.0000 </r>
       <r>   -3.8533    1.0000 </r>
       <r>   -3.7428    1.0000 </r>
       <r>   -3.5491    1.0000 </r>
       <r>   -3.2873    1.0000 </r>
       <r>   -3.2399    1.0000 </r>
       <r>   -2.7764    1.0000 </r>
       <r>   -2.7045    1.0000 </r>
       <r>   -2.5116    1.0000 </r>
       <r>   -2.5100    1.0000 </r>
       <r>   -2.4491    1.0000 </r>
       <r>   -2.3872    1.0000 </r>
       <r>   -2.2994    1.0000 </r>
       <r>   -2.2843    1.0000 </r>
       <r>   -1.0293    0.9622 </r>
       <r>   -0.0764    0.0000 </r>
       <r>    0.4899    0.0000 </r>
       <r>    0.7559    0.0000 </r>
       <r>    3.4112    0.0000 </r>
       <r>    4.2250    0.0000 </r>
      </set>
      <set comment="kpoint 21">
       <r>   -8.7040    1.0000 </r>
       <r>   -7.4932    1.0000 </r>
       <r>   -5.9228    1.0000 </r>
       <r>   -5.3030    1.0000 </r>
       <r>   -4.2197    1.0000 </r>
       <r>   -4.1616    1.0000 </r>
       <r>   -4.0492    1.0000 </r>
       <r>   -3.8106    1.0000 </r>
       <r>   -3.7643    1.0000 </r>
       <r>   -3.7312    1.0000 </r>
       <r>   -3.6221    1.0000 </r>
       <r>   -3.5286    1.0000 </r>
       <r>   -3.4784    1.0000 </r>
       <r>   -3.3075    1.0000 </r>
       <r>   -3.2821    1.0000 </r>
       <r>   -3.1950    1.0000 </r>
       <r>   -3.1634    1.0000 </r>
       <r>   -3.1001    1.0000 </r>
       <r>   -2.9072    1.0000 </r>
       <r>   -2.7604    1.0000 </r>
       <r>   -2.7291    1.0000 </r>
       <r>   -2.5000    1.0000 </r>
       <r>   -2.2765    1.0000 </r>
       <r>   -0.7934    0.5436 </r>
       <r>    0.7805    0.0000 </r>
       <r>    3.9585    0.0000 </r>
      </set>
      <set comment="kpoint 22">
       <r>   -7.5761    1.0000 </r>
       <r>   -6.5103    1.0000 </r>
       <r>   -5.2689    1.0000 </r>
       <r>   -4.8316    1.0000 </r>
       <r>   -4.4829    1.0000 </r>
       <r>   -4.2980    1.0000 </r>
       <r>   -4.2408    1.0000 </r>
       <r>   -3.9461    1.0000 </r>
       <r>   -3.8738    1.0000 </r>
       <r>   -3.8027    1.0000 </r>
       <r>   -3.6905    1.0000 </r>
       <r>   -3.5107    1.0000 </r>
       <r>   -3.3870    1.0000 </r>
       <r>   -3.2350    1.0000 </r>
       <r>   -3.1930    1.0000 </r>
       <r>   -3.0796    1.0000 </r>
       <r>   -2.8819    1.0000 </r>
       <r>   -2.7945    1.0000 </r>
       <r>   -2.7469    1.0000 </r>
       <r>   -2.6715    1.0000 </r>
       <r>   -2.6418    1.0000 </r>
       <r>   -2.5001    1.0000 </r>
       <r>   -1.7401    1.0000 </r>
       <r>    0.2751    0.0000 </r>
       <r>    2.3555    0.0000 </r>
       <r>    5.0423    0.0000 </r>
      </set>
      <set comment="kpoint 23">
       <r>   -6.2636    1.0000 </r>
       <r>   -5.6600    1.0000 </r>
       <r>   -5.1189    1.0000 </r>
       <r>   -4.8522    1.0000 </r>
       <r>   -4.6357    1.0000 </r>
       <r>   -4.4603    1.0000 </r>
       <r>   -4.1583    1.0000 </r>
       <r>   -3.9790    1.0000 </r>
       <r>   -3.7716    1.0000 </r>
       <r>   -3.6712    1.0000 </r>
       <r>   -3.5139    1.0000 </r>
       <r>   -3.4040    1.0000 </r>
       <r>   -3.3172    1.0000 </r>
       <r>   -3.1619    1.0000 </r>
       <r>   -2.9195    1.0000 </r>
       <r>   -2.8489    1.0000 </r>
       <r>   -2.7362    1.0000 </r>
       <r>   -2.5642    1.0000 </r>
       <r>   -2.5507    1.0000 </r>
       <r>   -2.4347    1.0000 </r>
       <r>   -2.1940    1.0000 </r>
       <r>   -1.9743    1.0000 </r>
       <r>   -0.6475    0.1782 </r>
       <r>    1.7237    0.0000 </r>
       <r>    4.2647    0.0000 </r>
       <r>    5.7909    0.0000 </r>
      </set>
      <set comment="kpoint 24">
       <r>   -5.5531    1.0000 </r>
       <r>   -5.4063    1.0000 </r>
       <r>   -5.0524    1.0000 </r>
       <r>   -4.9872    1.0000 </r>
       <r>   -4.8439    1.0000 </r>
       <r>   -4.5860    1.0000 </r>
       <r>   -4.1341    1.0000 </r>
       <r>   -3.8178    1.0000 </r>
       <r>   -3.7832    1.0000 </r>
       <r>   -3.6482    1.0000 </r>
       <r>   -3.5020    1.0000 </r>
       <r>   -3.1991    1.0000 </r>
       <r>   -2.9523    1.0000 </r>
       <r>   -2.8542    1.0000 </r>
       <r>   -2.7836    1.0000 </r>
       <r>   -2.6051    1.0000 </r>
       <r>   -2.5523    1.0000 </r>
       <r>   -2.5141    1.0000 </r>
       <r>   -2.4368    1.0000 </r>
       <r>   -2.3600    1.0000 </r>
       <r>   -1.0167    0.9543 </r>
       <r>   -0.3712    0.0020 </r>
       <r>    0.8290    0.0000 </r>
       <r>    1.8788    0.0000 </r>
       <r>    3.7041    0.0000 </r>
       <r>    4.5995    0.0000 </r>
      </set>
      <set comment="kpoint 25">
       <r>   -6.3867    1.0000 </r>
       <r>   -5.6473    1.0000 </r>
       <r>   -4.9950    1.0000 </r>
       <r>   -4.5855    1.0000 </r>
       <r>   -4.5565    1.0000 </r>
       <r>   -4.3380    1.0000 </r>
       <r>   -4.2411    1.0000 </r>
       <r>   -4.0555    1.0000 </r>
       <r>   -3.9116    1.0000 </r>
       <r>   -3.8952    1.0000 </r>
       <r>   -3.8539    1.0000 </r>
       <r>   -3.4905    1.0000 </r>
       <r>   -3.4808    1.0000 </r>
       <r>   -3.2365    1.0000 </r>
       <r>   -3.0708    1.0000 </r>
       <r>   -2.9157    1.0000 </r>
       <r>   -2.8442    1.0000 </r>
       <r>   -2.5843    1.0000 </r>
       <r>   -2.5347    1.0000 </r>
       <r>   -2.4519    1.0000 </r>
       <r>   -2.1246    1.0000 </r>
       <r>   -1.9232    1.0000 </r>
       <r>   -0.6999    0.2904 </r>
       <r>    1.5927    0.0000 </r>
       <r>    4.0321    0.0000 </r>
       <r>    6.3788    0.0000 </r>
      </set>
      <set comment="kpoint 26">
       <r>   -5.3973    1.0000 </r>
       <r>   -5.1836    1.0000 </r>
       <r>   -4.9419    1.0000 </r>
       <r>   -4.7497    1.0000 </r>
       <r>   -4.5499    1.0000 </r>
       <r>   -4.3985    1.0000 </r>
       <r>   -4.2939    1.0000 </r>
       <r>   -4.0372    1.0000 </r>
       <r>   -3.9590    1.0000 </r>
       <r>   -3.6370    1.0000 </r>
       <r>   -3.5657    1.0000 </r>
       <r>   -3.5146    1.0000 </r>
       <r>   -3.4462    1.0000 </r>
       <r>   -3.1935    1.0000 </r>
       <r>   -2.9285    1.0000 </r>
       <r>   -2.8768    1.0000 </r>
       <r>   -2.8014    1.0000 </r>
       <r>   -2.5534    1.0000 </r>
       <r>   -2.4439    1.0000 </r>
       <r>   -2.3673    1.0000 </r>
       <r>   -1.0108    0.9502 </r>
       <r>   -0.3949    0.0034 </r>
       <r>    1.0785    0.0000 </r>
       <r>    3.2446    0.0000 </r>
       <r>    4.7290    0.0000 </r>
       <r>    5.6572    0.0000 </r>
      </set>
      <set comment="kpoint 27">
       <r>   -5.1542    1.0000 </r>
       <r>   -5.1318    1.0000 </r>
       <r>   -4.8252    1.0000 </r>
       <r>   -4.7597    1.0000 </r>
       <r>   -4.6544    1.0000 </r>
       <r>   -4.4380    1.0000 </r>
       <r>   -4.3425    1.0000 </r>
       <r>   -3.9490    1.0000 </r>
       <r>   -3.9278    1.0000 </r>
       <r>   -3.6687    1.0000 </r>
       <r>   -3.5947    1.0000 </r>
       <r>   -3.3146    1.0000 </r>
       <r>   -3.2670    1.0000 </r>
       <r>   -3.1982    1.0000 </r>
       <r>   -2.9070    1.0000 </r>
       <r>   -2.7605    1.0000 </r>
       <r>   -2.6323    1.0000 </r>
       <r>   -2.5405    1.0000 </r>
       <r>   -2.5155    1.0000 </r>
       <r>   -2.4267    1.0000 </r>
       <r>    0.7320    0.0000 </r>
       <r>    1.1797    0.0000 </r>
       <r>    1.7406    0.0000 </r>
       <r>    2.2960    0.0000 </r>
       <r>    3.9557    0.0000 </r>
       <r>    4.8418    0.0000 </r>
      </set>
      <set comment="kpoint 28">
       <r>   -4.9050    1.0000 </r>
       <r>   -4.8523    1.0000 </r>
       <r>   -4.7925    1.0000 </r>
       <r>   -4.6231    1.0000 </r>
       <r>   -4.5414    1.0000 </r>
       <r>   -4.5009    1.0000 </r>
       <r>   -4.3529    1.0000 </r>
       <r>   -4.0331    1.0000 </r>
       <r>   -3.9768    1.0000 </r>
       <r>   -3.6550    1.0000 </r>
       <r>   -3.5829    1.0000 </r>
       <r>   -3.5766    1.0000 </r>
       <r>   -3.5645    1.0000 </r>
       <r>   -3.1395    1.0000 </r>
       <r>   -2.9640    1.0000 </r>
       <r>   -2.9407    1.0000 </r>
       <r>   -2.7048    1.0000 </r>
       <r>   -2.5621    1.0000 </r>
       <r>   -2.5204    1.0000 </r>
       <r>   -2.4607    1.0000 </r>
       <r>    0.9702    0.0000 </r>
       <r>    1.8525    0.0000 </r>
       <r>    3.2004    0.0000 </r>
       <r>    3.8431    0.0000 </r>
       <r>    3.9283    0.0000 </r>
       <r>    4.9030    0.0000 </r>
      </set>
     </set>
    </set>
   </array>
  </eigenvalues>
  <separator name="orbital magnetization" >
   <v name="MAGDIPOLOUT">      0.00000000      0.00000000      0.00000000</v>
  </separator>
 </calculation>
 <structure name="finalpos" >
  <crystal>
   <varray name="basis" >
    <v>       2.57386868       0.00000000       0.00000000 </v>
    <v>       1.28693434       2.22903567       0.00000000 </v>
    <v>       0.00000000       0.00000000      18.30466494 </v>
   </varray>
   <i name="volume">    105.01834914 </i>
   <varray name="rec_basis" >
    <v>       0.38852021      -0.22431225       0.00000000 </v>
    <v>       0.00000000       0.44862450       0.00000000 </v>
    <v>       0.00000000       0.00000000       0.05463088 </v>
   </varray>
  </crystal>
  <varray name="positions" >
   <v>       0.00000000       0.00000000       0.33109255 </v>
   <v>       0.33333333       0.33333333       0.44359998 </v>
   <v>       0.66666667       0.66666667       0.55640002 </v>
   <v>      -0.00000000      -0.00000000       0.66890745 </v>
  </varray>
 </structure>
</modeling>
