unknown system                          
           1
     2.573869    0.000000    0.000000
     1.286934    2.229036    0.000000
     0.000000    0.000000   18.304665
   Cu
   4
Direct configuration=     1
   0.00000000  0.00000000  0.32778530
   0.33333333  0.33333333  0.44259510
   0.66666667  0.66666667  0.55740490
   0.00000000  0.00000000  0.67221470
Direct configuration=     2
   0.00000000  0.00000000  0.32818060
   0.33333333  0.33333333  0.44269531
   0.66666667  0.66666667  0.55730469
  -0.00000000 -0.00000000  0.67181940
Direct configuration=     3
   0.00000000  0.00000000  0.33109255
   0.33333333  0.33333333  0.44359998
   0.66666667  0.66666667  0.55640002
  -0.00000000 -0.00000000  0.66890745
