unknown system                          
   1.00000000000000     
     4.913800    0.000000    0.000000
    -2.456900    4.255476    0.000000
     0.000000    0.000000    5.405200
   Si   O 
     3     6
Direct
  0.469800  0.000000  0.666667
  0.530200  0.530200  0.000000
  0.000000  0.469800  0.333333
  0.414500  0.266200  0.785600
  0.585500  0.851700  0.881067
  0.148300  0.733800  0.547733
  0.266200  0.414500  0.214400
  0.851700  0.585500  0.118933
  0.733800  0.148300  0.452267
 
   56   56   60
  1.4723      1.4171      1.4075      1.4319      1.4831      1.5575      1.6530      1.7673      1.8971      2.0383    
  2.1871      2.3404      2.4946      2.6445      2.7840      2.9097      3.0241      3.1370      3.2638      3.4248    
  3.6447      3.9543      4.3936      5.0164      5.8920      7.1041      8.7428      10.894      13.627      16.989    
  20.984      25.555      30.549      35.671      40.483      44.442      47.005      47.768      46.595      43.654    
  39.369      34.293      28.971      23.836      19.173      15.132      11.760      9.0358      6.9013      5.2747    
  4.0645      3.1808      2.5453      2.0964      1.7889      1.5894      1.4169      1.3594      1.3523      1.3848    
  1.4503      1.5454      1.6680      1.8155      1.9844      2.1704      2.3693      2.5763      2.7845      2.9843    
  3.1653      3.3205      3.4489      3.5551      3.6492      3.7459      3.8653      4.0339      4.2852      4.6601    
  5.2092      5.9937      7.0828      8.5463      10.444      12.812      15.656      18.936      22.549      26.317    
  29.966      33.149      35.487      36.659      36.482      34.968      32.317      28.864      24.988      21.040    
  17.289      13.912      11.002      8.5869      6.6494      5.1403      3.9933      3.1379      2.5105      2.0595    
  1.7457      1.5394      1.4073      1.3523      1.3505      1.3921      1.4713      1.5851      1.7320      1.9102    
  2.1168      2.3479      2.5988      2.8633      3.1319      3.3917      3.6290      3.8324      3.9949      4.1151    
  4.1962      4.2476      4.2861      4.3366      4.4296      4.6003      4.8883      5.3386      6.0027      6.9351    
  8.1858      9.7902      11.758      14.066      16.645      19.379      22.093      24.563      26.534      27.769    
  28.100      27.469      25.946      23.711      21.008      18.094      15.195      12.480      10.061      7.9920    
  6.2886      4.9308      3.8768      3.0754      2.4770      2.0403      1.7326      1.5284      1.4323      1.3852    
  1.3923      1.4451      1.5388      1.6708      1.8407      2.0480      2.2913      2.5680      2.8736      3.2003    
  3.5367      3.8679      4.1774      4.4490      4.6688      4.8263      4.9165      4.9428      4.9196      4.8710    
  4.8279      4.8237      4.8935      5.0737      5.4039      5.9259      6.6796      7.6968      8.9931      10.559    
  12.353      14.297      16.276      18.142      19.725      20.853      21.390      21.260      20.465      19.090    
  17.279      15.208      13.047      10.943      9.0022      7.2905      5.8403      4.6545      3.7137      2.9853    
  2.4336      2.0262      1.7370      1.5447      1.4844      1.4511      1.4715      1.5387      1.6486      1.7998    
  1.9928      2.2285      2.5078      2.8300      3.1917      3.5854      3.9984      4.4140      4.8126      5.1729    
  5.4734      5.6936      5.8187      5.8447      5.7820      5.6542      5.4929      5.3329      5.2096      5.1582    
  5.2135      5.4094      5.7774      6.3435      7.1241      8.1193      9.3071      10.639      12.039      13.408    
  14.627      15.577      16.150      16.273      15.921      15.123      13.958      12.536      10.980      9.4019    
  7.8944      6.5235      5.3293      4.3274      3.5140      2.8720      2.3790      2.0123      1.7519      1.5807    
  1.5590      1.5458      1.5849      1.6705      1.7995      1.9719      2.1891      2.4537      2.7685      3.1351    
  3.5529      4.0161      4.5130      5.0259      5.5316      6.0026      6.4083      6.7183      6.9076      6.9634    
  6.8898      6.7065      6.4449      6.1424      5.8391      5.5750      5.3871      5.3078      5.3639      5.5762    
  5.9581      6.5131      7.2311      8.0843      9.0243      9.9836      10.881      11.629      12.147      12.371    
  12.268      11.838      11.120      10.178      9.0921      7.9433      6.8058      5.7396      4.7863      3.9679    
  3.2887      2.7421      2.3164      1.9984      1.7747      1.6321      1.6534      1.6670      1.7308      1.8401    
  1.9926      2.1890      2.4323      2.7268      3.0767      3.4866      3.9589      4.4915      5.0758      5.6950    
  6.3235      6.9271      7.4650      7.8957      8.1829      8.3037      8.2528      8.0430      7.7026      7.2712    
  6.7957      6.3255      5.9064      5.5755      5.3603      5.2791      5.3424      5.5531      5.9057      6.3837    
  6.9569      7.5803      8.1974      8.7455      9.1637      9.3998      9.4187      9.2090      8.7843      8.1797    
  7.4435      6.6306      5.7961      4.9894      4.2493      3.5995      3.0498      2.6005      2.2473      1.9842    
  1.8035      1.6963      1.7658      1.8132      1.9084      2.0476      2.2290      2.4540      2.7266      3.0524    
  3.4376      3.8893      4.4138      5.0137      5.6850      6.4137      7.1745      7.9283      8.6250      9.2101    
  9.6341      9.8605      9.8710      9.6683      9.2754      8.7330      8.0952      7.4226      6.7735      6.1961    
  5.7239      5.3779      5.1684      5.0975      5.1591      5.3403      5.6204      5.9693      6.3479      6.7108    
  7.0117      7.2088      7.2698      7.1777      6.9329      6.5518      6.0624      5.5003      4.9039      4.3103    
  3.7506      3.2471      2.8130      2.4548      2.1738      1.9691      1.8369      1.7715      1.8945      1.9826    
  2.1161      2.2920      2.5093      2.7695      3.0767      3.4372      3.8589      4.3511      4.9243      5.5870    
  6.3412      7.1777      8.0732      8.9875      9.8640      10.636      11.238      11.616      11.732      11.577    
  11.164      10.534      9.7493      8.8813      8.0022      7.1740      6.4428      5.8373      5.3723      5.0506    
  4.8654      4.8031      4.8453      4.9694      5.1471      5.3445      5.5259      5.6576      5.7116      5.6693    
  5.5240      5.2811      4.9554      4.5691      4.1485      3.7203      3.3072      2.9268      2.5926      2.3154    
  2.1021      1.9557      1.8752      1.8567      2.0370      2.1711      2.3496      2.5699      2.8315      3.1360    
  3.4865      3.8886      4.3507      4.8840      5.5024      6.2209      7.0493      7.9861      9.0126      10.090    
  11.160      12.145      12.964      13.539      13.813      13.753      13.362      12.677      11.767      10.715    
  9.6079      8.5229      7.5226      6.6494      5.9266      5.3612      4.9473      4.6699      4.5095      4.4445    
  4.4510      4.5021      4.5689      4.6233      4.6413      4.6048      4.5038      4.3373      4.1119      3.8403    
  3.5399      3.2299      2.9276      2.6459      2.3962      2.1904      2.0394      1.9495      1.9213      1.9519    
  2.1889      2.3724      2.6023      2.8754      3.1916      3.5522      3.9582      4.4130      4.9238      5.5026    
  6.1658      6.9334      7.8242      8.8474      9.9931      11.228      12.494      13.708      14.775      15.593    
  16.078      16.172      15.856      15.161      14.156      12.937      11.606      10.258      8.9751      7.8193    
  6.8266      6.0109      5.3691      4.8857      4.5386      4.3038      4.1581      4.0771      4.0353      4.0079    
  3.9733      3.9143      3.8195      3.6843      3.5112      3.3072      3.0826      2.8501      2.6231      2.4131    
  2.2302      2.0857      1.9913      1.9546      1.9768      2.0559      2.3443      2.5788      2.8653      3.2004    
  3.5830      4.0133      4.4905      5.0137      5.5868      6.2212      6.9345      7.7495      8.6928      9.7852    
  11.030      12.405      13.857      15.303      16.636      17.733      18.480      18.788      18.615      17.969    
  16.915      15.556      14.010      12.395      10.817      9.3602      8.0798      7.0000      6.1212      5.4283    
  4.8966      4.4985      4.2083      4.0019      3.8551      3.7433      3.6457      3.5457      3.4308      3.2941    
  3.1358      2.9609      2.7761      2.5884      2.4068      2.2426      2.1067      2.0100      1.9628      1.9723    
  2.0400      2.1644      2.4968      2.7827      3.1297      3.5348      3.9954      4.5100      5.0755      5.6867    
  6.3420      7.0491      7.8252      8.6945      9.6876      10.836      12.157      13.644      15.255      16.915    
  18.512      19.906      20.955      21.537      21.577      21.054      20.016      18.562      16.826      14.951    
  13.069      11.295      9.7056      8.3407      7.2079      6.2938      5.5719      5.0098      4.5765      4.2456    
  3.9923      3.7921      3.6228      3.4677      3.3139      3.1523      2.9801      2.8018      2.6238      2.4510    
  2.2894      2.1486      2.0403      1.9749      1.9606      2.0040      2.1081      2.2724      2.6423      2.9781    
  3.3865      3.8662      4.4135      5.0252      5.6961      6.4172      7.1799      7.9851      8.8462      9.7863    
  10.837      12.036      13.414      14.980      16.712      18.545      20.374      22.056      23.425      24.327    
  24.645      24.326      23.383      21.906      20.032      17.926      15.751      13.652      11.733      10.058    
  8.6472      7.4925      6.5684      5.8377      5.2608      4.8042      4.4408      4.1456      3.8954      3.6720    
  3.4627      3.2573      3.0497      2.8416      2.6404      2.4530      2.2850      2.1446      2.0431      1.9898    
  1.9912      2.0533      2.1811      2.3772      2.7784      3.1591      3.6253      4.1785      4.8163      5.5342    
  6.3250      7.1770      8.0753      9.0114      9.9899      11.029      12.158      13.414      14.838      16.455    
  18.260      20.209      22.213      24.138      25.809      27.045      27.692      27.650      26.894      25.484    
  23.553      21.279      18.851      16.442      14.190      12.185      10.472      9.0539      7.9099      7.0005    
  6.2770      5.6946      5.2189      4.8228      4.4819      4.1764      3.8934      3.6235      3.3594      3.0996    
  2.8502      2.6205      2.4179      2.2508      2.1299      2.0651      2.0624      2.1264      2.2638      2.4804    
  2.9048      3.3196      3.8341      4.4533      5.1787      6.0061      6.9269      7.9271      8.9872      10.089    
  11.225      12.403      13.644      14.980      16.454      18.100      19.934      21.933      24.035      26.124    
  28.037      29.583      30.572      30.860      30.375      29.135      27.253      24.906      22.299      19.633    
  17.073      14.745      12.720      11.023      9.6425      8.5411      7.6647      6.9564      6.3695      5.8698    
  5.4300      5.0286      4.6515      4.2915      3.9437      3.6060      3.2829      2.9839      2.7181      2.4944    
  2.3244      2.2200      2.1887      2.2350      2.3652      2.5871      3.0231      3.4541      4.0016      4.6733    
  5.4761      6.4089      7.4624      8.6205      9.8612      11.159      12.493      13.857      15.257      16.713    
  18.258      19.931      21.760      23.747      25.858      28.012      30.071      31.853      33.153      33.787    
  33.632      32.658      30.938      28.636      25.961      23.128      20.332      17.726      15.414      13.446    
  11.827      10.527      9.4926      8.6580      7.9632      7.3615      6.8186      6.3094      5.8180      5.3388    
  4.8717      4.4185      3.9850      3.5813      3.2186      2.9068      2.6573      2.4829      2.3943      2.3975    
  2.4986      2.7053      3.1396      3.5628      4.1219      4.8272      5.6900      6.7142      7.8920      9.2064    
  10.634      12.146      13.711      15.305      16.917      18.547      20.209      21.931      23.745      25.674    
  27.714      29.823      31.907      33.813      35.343      36.288      36.482      35.841      34.387      32.252    
  29.638      26.767      23.851      21.065      18.539      16.350      14.523      13.040      11.853      10.896    
  10.099      9.4026      8.7584      8.1343      7.5107      6.8823      6.2543      5.6361      5.0394      4.4792    
  3.9715      3.5294      3.1637      2.8860      2.7076      2.6375      2.6819      2.8473      3.2676      3.6542    
  4.1985      4.9126      5.8108      6.9017      8.1814      9.6351      11.240      12.966      14.778      16.637    
  18.511      20.374      22.214      24.035      25.858      27.713      29.624      31.592      33.566      35.430    
  37.024      38.161      38.661      38.394      37.318      35.499      33.098      30.336      27.450      24.630    
  22.022      19.718      17.761      16.148      14.841      13.782      12.900      12.123      11.388      10.650    
  9.8826      9.0772      8.2439      7.4024      6.5760      5.7896      5.0680      4.4318      3.8952      3.4683    
  3.1610      2.9819      2.9369      3.0305      3.4277      3.7464      4.2446      4.9366      5.8383      6.9610    
  8.3068      9.8660      11.620      13.542      15.595      17.733      19.903      22.052      24.136      26.124    
  28.013      29.823      31.592      33.339      35.027      36.610      38.010      39.110      39.759      39.812    
  39.179      37.853      35.920      33.536      30.901      28.234      25.722      23.468      21.518      19.880    
  18.531      17.424      16.495      15.668      14.867      14.030      13.117      12.114      11.033      9.9046    
  8.7701      7.6705      6.6445      5.7252      4.9363      4.2919      3.7998      3.4653      3.2910      3.2778    
  3.6458      3.8631      4.2810      4.9148      5.7811      6.8934      8.2593      9.8770      11.735      13.812    
  16.076      18.478      20.952      23.422      25.806      28.037      30.073      31.908      33.567      35.028    
  36.273      37.325      38.217      38.948      39.458      39.640      39.386      38.634      37.388      35.720    
  33.743      31.598      29.442      27.446      25.697      24.202      22.947      21.898      21.002      20.186    
  19.367      18.466      17.424      16.217      14.852      13.373      11.841      10.322      8.8789      7.5626    
  6.4128      5.4538      4.6957      4.1397      3.7827      3.6195      3.9540      4.0320      4.3330      4.8695    
  5.6580      6.7137      8.0488      9.6698      11.574      13.748      16.166      18.786      21.538      24.328    
  27.047      29.584      31.854      33.813      35.429      36.610      37.325      37.647      37.717      37.686    
  37.649      37.611      37.511      37.264      36.810      36.126      35.214      34.093      32.806      31.439    
  30.133      29.001      28.038      27.217      26.495      25.805      25.061      24.168      23.046      21.650    
  19.980      18.087      16.057      13.993      11.993      10.138      8.4899      7.0885      5.9519      5.0813    
  4.4674      4.0963      4.3927      4.2847      4.4291      4.8290      5.4975      6.4506      7.7041      9.2710    
  11.157      13.357      15.853      18.614      21.579      24.650      27.696      30.574      33.154      35.342    
  37.022      38.009      38.217      37.718      36.728      35.557      34.501      33.764      33.413      33.416    
  33.685      34.115      34.584      34.958      35.112      34.979      34.593      34.101      33.670      33.305    
  32.969      32.598      32.098      31.356      30.260      28.734      26.760      24.395      21.756      18.994    
  16.263      13.691      11.371      9.3649      7.7043      6.3947      5.4228      4.7644      5.0155      4.6604    
  4.6018      4.8257      5.3352      6.1438      7.2685      8.7258      10.527      12.676      15.165      17.973    
  21.057      24.328      27.651      30.860      33.786      36.287      38.161      39.109      38.948      37.687    
  35.558      32.986      30.482      28.507      27.362      27.158      27.861      29.326      31.323      33.547    
  35.660      37.378      38.556      39.239      39.637      39.985      40.303      40.527      40.545      40.206    
  39.347      37.836      35.619      32.749      29.379      25.732      22.045      18.519      15.302      12.486    
  10.119      8.2123      6.7500      5.6983      5.8914      5.2092      4.8898      4.8950      5.2094      5.8370    
  6.7918      8.0902      9.7468      11.771      14.165      16.922      20.017      23.382      26.891      30.371    
  33.628      36.480      38.663      39.760      39.458      37.649      34.502      30.483      26.271      22.602    
  20.081      19.072      19.695      21.855      25.269      29.479      33.915      38.014      41.375      43.864    
  45.625      46.986      48.244      49.396      50.303      50.755      50.496      49.295      47.017      43.685    
  39.486      34.738      29.803      25.007      20.590      16.696      13.391      10.690      8.5723      6.9919    
  7.1038      5.9929      5.3392      5.0747      5.1571      5.5719      6.3231      7.4224      8.8839      10.721    
  12.944      15.559      18.559      21.901      25.480      29.133      32.655      35.839      38.396      39.816    
  39.641      37.611      33.763      28.507      22.602      17.008      12.652      10.229      10.116      12.378    
  16.782      22.797      29.644      36.452      42.488      47.353      51.053      53.914      56.397      58.802    
  61.019      62.756      63.624      63.227      61.279      57.703      52.687      46.648      40.128      33.653    
  27.626      22.288      17.742      14.001      11.027      8.7538      8.7430      7.0816      6.0023      5.4047    
  5.2131      5.3848      5.9055      6.7766      8.0074      9.6118      11.606      14.006      16.819      20.026    
  23.552      27.256      30.941      34.388      37.320      39.182      39.387      37.509      33.412      27.361    
  20.080      12.651      6.2740      1.9872     0.49343      2.1183      6.8033      14.073      23.041      32.559    
  41.520      49.169      55.280      60.117      64.220      68.137      72.031      75.563      78.185      79.275    
  78.300      74.979      69.403      62.050      53.662      45.053      36.898      29.628      23.433      18.332    
  14.255      11.097      10.895      8.5455      6.9339      5.9265      5.4103      5.3070      5.5751      6.1990    
  7.1783      8.5237      10.253      12.388      14.944      17.922      21.281      24.912      28.643      32.255    
  35.499      37.853      38.633      37.262      33.414      27.159      19.073      10.228      1.9853     -4.3231    
 -7.6579     -7.3785     -3.2702      4.3935      14.782      26.592      38.367      48.937      57.741      64.885    
  70.945      76.623      82.399      88.108      93.069      96.403      97.248      94.994      89.489      81.142    
  70.849      59.752      48.928      39.140      30.770      23.891      18.400      14.127      13.629      10.444    
  8.1844      6.6794      5.7789      5.3645      5.3596      5.7247      6.4445      7.5210      8.9695      10.812    
  13.070      15.755      18.855      22.304      25.964      29.638      33.095      35.917      37.386      36.808    
  33.683      27.862      19.699      10.117     0.49193     -7.6592     -13.005     -14.586     -11.869     -4.8198    
  5.9626      19.213      33.256      46.519      58.020      67.597      75.763      83.342      91.041      99.043    
  106.69      112.90      116.43      116.26      111.84      103.29      91.513      77.921      64.062      51.194    
  40.059      30.894      23.602      17.936      16.990      12.814      9.7893      7.6956      6.3446      5.5777    
  5.2784      5.3768      5.8374      6.6480      7.8151      9.3582      11.300      13.661      16.447      19.632    
  23.125      26.763      30.330      33.533      35.720      36.127      34.115      29.326      21.858      12.380    
  2.1180     -7.3796     -14.586     -18.259     -17.549     -12.071     -2.0679      11.442      26.779      42.084    
  55.946      67.817      78.023      87.425      96.923      107.01      117.32      126.66      133.51      136.41    
  134.26      126.72      114.46      98.939      82.128      65.878      51.478      39.506      29.974      22.595    
  20.983      15.658      11.759      8.9912      7.1238      5.9598      5.3425      5.1665      5.3715      5.9272    
  6.8257      8.0791      9.7098      11.741      14.193      17.069      20.325      23.846      27.447      30.900    
  33.746      35.219      34.587      31.322      25.268      16.782      6.8027     -3.2718     -11.868     -17.546    
 -19.173     -16.016     -7.9046      4.5442      19.882      36.180      51.682      65.408      77.359      88.296    
  99.244      110.96      123.46      135.71      146.04      152.70      154.01      148.86      137.40      121.11    
  102.10      82.693      64.855      49.706      37.541      28.120      25.554      18.937      14.067      10.558    
  8.1175      6.5141      5.5546      5.0960      5.0488      5.3627      6.0135      7.0006      8.3410      10.060    
  12.184      14.738      17.720      21.065      24.635      28.237      31.600      34.097      34.961      33.545    
  29.475      22.795      14.072      4.3912     -4.8209     -12.068     -16.012     -15.607     -10.269     -.12679    
  13.793      29.740      45.811      60.637      73.804      85.818      97.692      110.39      124.29      138.73    
  152.10      162.57      168.04      166.61      157.56      141.89      121.95      100.33      79.451      61.124    
  46.128      34.426      30.546      22.549      16.647      12.353      9.3049      7.2308      5.9080      5.1593    
  4.8631      4.9472      5.3725      6.1234      7.2065      8.6443      10.468      12.714      15.410      18.543    
  22.032      25.729      29.442      32.804      35.112      35.658      33.911      29.642      23.042      14.782    
  5.9602     -2.0684     -7.9019     -10.267     -8.2032     -1.3390      9.8450      24.003      39.328      54.219    
  67.846      80.337      92.528      105.46      119.80      135.36      150.79      164.30      173.76      176.73    
  171.56      158.35      139.08      116.69      93.856      72.910      55.257      41.247      35.669      26.315    
  19.381      14.299      10.638      8.0825      6.3853      5.3423      4.8017      4.6678      4.8870      5.4307    
  6.2928      7.4895      9.0525      11.023      13.447      16.354      19.726      23.473      27.442      31.431    
  34.975      37.377      38.012      36.451      32.563      26.597      19.213      11.439      4.5433     -.12668    
 -1.3402      1.7324      9.1969      20.272      33.490      47.243      60.394      72.652      84.528      96.972    
  110.83      126.31      142.52      157.78      170.17      177.20      176.60      167.42      150.78      129.35    
  106.16      83.744      64.097      48.088      40.483      29.964      22.093      16.278      12.040      9.0221    
  6.9566      5.6227      4.8458      4.5072      4.5376      4.8978      5.5712      6.5658      7.9104      9.6477    
  11.833      14.525      17.762      21.516      25.691      30.125      34.590      38.558      41.377      42.488    
  41.523      38.372      33.259      26.777      19.880      13.793      9.8429      9.1935      12.490      19.584    
  29.531      40.957      52.617      63.863      74.812      86.159      98.755      113.10      128.78      144.42    
  158.25      168.14      171.68      167.19      154.72      136.16      114.38      92.061      71.550      54.238    
  44.443      33.147      24.562      18.144      13.409      9.9822      7.5787      5.9704      4.9710      4.4436    
  4.3024      4.4992      5.0100      5.8353      6.9994      8.5453      10.533      13.041      16.143      19.874    
  24.197      28.998      34.104      39.246      43.870      47.354      49.168      48.937      46.519      42.082    
  36.178      29.742      24.004      20.270      19.580      22.372      28.314      36.462      45.689      55.154    
  64.607      74.395      85.207      97.649      111.70      126.47      140.39      151.61      158.06      157.83    
  150.10      135.77      117.05      96.460      76.479      58.881      47.005      35.488      26.533      19.725    
  14.629      10.881      8.1959      6.3476      5.1483      4.4512      4.1571      4.2089      4.5783      5.2604    
  6.2748      7.6645      9.4944      11.852      14.835      18.526      22.947      28.042      33.675      39.643    
  45.630      51.053      55.276      57.737      58.018      55.943      51.681      45.814      39.333      33.493    
  29.529      28.312      30.081      34.424      40.524      47.552      55.015      62.920      71.681      81.836    
  93.583      106.44      119.32      130.63      138.57      141.42      137.99      128.30      113.66      96.131    
  78.034      61.291      47.771      36.662      27.770      20.853      15.578      11.629      8.7451      6.7102    
  5.3451      4.5026      4.0762      4.0017      4.2475      4.8061      5.6943      6.9549      8.6566      10.893    
  13.778      17.423      21.902      27.225      33.310      39.985      46.984      53.910      60.112      64.882    
  67.596      67.817      65.407      60.637      54.221      47.246      40.958      36.462      34.424      34.935    
  37.589      41.747      46.850      52.656      59.289      67.101      76.315      86.723      97.666      108.02    
  116.30      120.95      120.75      115.21      104.86      91.125      75.921      61.050      46.600      36.486    
  28.101      21.389      16.150      12.147      9.1639      7.0113      5.5261      4.5694      4.0348      3.8538    
  3.9921      4.4421      5.2202      6.3698      7.9628      10.098      12.898      16.496      21.007      26.501    
  32.970      40.298      48.236      56.391      64.218      70.946      75.767      78.028      77.362      73.804    
  67.845      60.393      52.616      45.689      40.525      37.591      36.874      38.020      40.563      44.155    
  48.693      54.305      61.107      69.005      77.634      86.278      93.875      99.172      101.01      98.671    
  92.176      82.331      70.499      58.181      43.658      34.969      27.467      21.257      16.272      12.371    
  9.4002      7.2084      5.6573      4.6239      4.0083      3.7426      3.7907      4.1447      4.8227      5.8701    
  7.3623      9.4037      12.124      15.669      20.188      25.807      32.595      40.520      49.389      58.800    
  68.139      76.627      83.347      87.429      88.300      85.818      80.335      72.648      63.860      55.152    
  47.552      41.748      38.021      36.293      36.275      37.640      40.169      43.796      48.475      54.111    
  60.491      67.184      73.493      78.510      81.285      81.074      77.601      71.184      62.663      53.140    
  39.370      32.314      25.942      20.462      15.920      12.268      9.4198      7.2697      5.7108      4.6413    
  3.9742      3.6464      3.6226      3.8947      4.4809      5.4288      6.8181      8.7594      11.390      14.868    
  19.367      25.059      32.094      40.540      50.303      61.024      72.038      82.403      91.042      96.921    
  99.243      97.691      92.527      84.528      74.811      64.606      55.015      46.850      40.564      36.275    
  33.865      33.097      33.734      35.576      38.440      42.177      46.618      51.487      56.341      60.571    
  63.474      64.411      62.995      59.235      53.557      46.673      34.289      28.857      23.707      19.090    
  15.124      11.840      9.2108      7.1783      5.6684      4.6040      3.9147      3.5466      3.4683      3.6728    
  4.1773      5.0283      6.3077      8.1331      10.651      14.031      18.465      24.165      31.352      40.205    
  50.758      62.763      75.570      88.111      99.040      107.00      110.95      110.38      105.46      96.974    
  86.163      74.399      62.921      52.656      44.154      37.639      33.097      30.375      29.255      29.470    
  30.771      32.950      35.816      39.154      42.669      45.958      48.534      49.906      49.698      47.770    
  44.272      39.601      28.964      24.981      21.007      17.284      13.962      11.122      8.7851      6.9334    
  5.5234      4.5025      3.8192      3.4312      3.3136      3.4624      3.8949      4.6538      5.8182      7.5089    
  9.8817      13.118      17.424      23.045      30.259      39.349      50.500      63.627      78.187      93.067    
  106.69      117.31      123.46      124.29      119.80      110.83      98.758      85.212      71.682      59.288    
  48.692      40.169      33.734      29.254      26.507      25.232      25.158      26.034      27.636      29.752    
  32.150      34.552      36.625      38.010      38.396      37.598      35.614      32.630      23.831      21.037    
  18.097      15.216      12.542      10.178      8.1767      6.5506      5.2810      4.3363      3.6838      3.2950    
  3.1521      3.2549      3.6222      4.2935      5.3411      6.8819      9.0761      12.114      16.217      21.649    