unknown system                          
   1.00000000000000     
     4.913800    0.000000    0.000000
    -2.456900    4.255476    0.000000
     0.000000    0.000000    5.405200
   Si   O 
     3     6
Direct
  0.469800  0.000000  0.666667
  0.530200  0.530200  0.000000
  0.000000  0.469800  0.333333
  0.414500  0.266200  0.785600
  0.585500  0.851700  0.881067
  0.148300  0.733800  0.547733
  0.266200  0.414500  0.214400
  0.851700  0.585500  0.118933
  0.733800  0.148300  0.452267
 
   56   56   60
 0.14722673256E+01 0.14170803311E+01 0.14075154877E+01 0.14318811028E+01 0.14830812465E+01
 0.15574695025E+01 0.16529558543E+01 0.17672704805E+01 0.18970830915E+01 0.20383042381E+01
 0.21871260243E+01 0.23404244844E+01 0.24946496539E+01 0.26445334513E+01 0.27840181123E+01
 0.29096851648E+01 0.30241402203E+01 0.31370048879E+01 0.32638277119E+01 0.34248121708E+01
 0.36446957118E+01 0.39542657724E+01 0.43936331000E+01 0.50163731911E+01 0.58920306975E+01
 0.71041346786E+01 0.87427903861E+01 0.10893782789E+02 0.13627487433E+02 0.16988729503E+02
 0.20983537158E+02 0.25555366864E+02 0.30548519771E+02 0.35670974195E+02 0.40483428948E+02
 0.44442289210E+02 0.47004535498E+02 0.47768414762E+02 0.46594946879E+02 0.43653560526E+02
 0.39368604471E+02 0.34293452806E+02 0.28971268819E+02 0.23835855697E+02 0.19173231060E+02
 0.15132377496E+02 0.11759798196E+02 0.90357913753E+01 0.69012614949E+01 0.52746834705E+01
 0.40644929424E+01 0.31807780701E+01 0.25452688570E+01 0.20964443538E+01 0.17889090428E+01
 0.15893646211E+01 0.14168527927E+01 0.13594033664E+01 0.13522702776E+01 0.13847975405E+01
 0.14503393886E+01 0.15454232790E+01 0.16679886758E+01 0.18155423254E+01 0.19844264024E+01
 0.21704006035E+01 0.23692902895E+01 0.25763300225E+01 0.27845481688E+01 0.29842719304E+01
 0.31652782867E+01 0.33205376625E+01 0.34488645016E+01 0.35551213397E+01 0.36492213793E+01
 0.37458566758E+01 0.38652540888E+01 0.40339478792E+01 0.42852313019E+01 0.46601297995E+01
 0.52092239527E+01 0.59936823857E+01 0.70827599248E+01 0.85463240117E+01 0.10443765564E+02
 0.12812311824E+02 0.15656316410E+02 0.18935566638E+02 0.22549231301E+02 0.26316738043E+02
 0.29966329470E+02 0.33148550627E+02 0.35486762248E+02 0.36658714273E+02 0.36482088213E+02
 0.34967875046E+02 0.32317176698E+02 0.28863601862E+02 0.24987977828E+02 0.21039817451E+02
 0.17289024553E+02 0.13912049678E+02 0.11001848918E+02 0.85868954718E+01 0.66493859972E+01
 0.51403228713E+01 0.39933110782E+01 0.31379160296E+01 0.25104521486E+01 0.20594633813E+01
 0.17457267893E+01 0.15393546309E+01 0.14072703508E+01 0.13523457136E+01 0.13504673885E+01
 0.13921001540E+01 0.14713210585E+01 0.15851474087E+01 0.17320423975E+01 0.19102216661E+01
 0.21167784650E+01 0.23478514651E+01 0.25987992710E+01 0.28632990001E+01 0.31318723071E+01
 0.33917316389E+01 0.36290434309E+01 0.38323666969E+01 0.39949467990E+01 0.41151072269E+01
 0.41961947839E+01 0.42475759206E+01 0.42861465641E+01 0.43365503138E+01 0.44295685446E+01
 0.46003321227E+01 0.48882706673E+01 0.53385749277E+01 0.60026750475E+01 0.69350750292E+01
 0.81858255672E+01 0.97902262321E+01 0.11758307400E+02 0.14065650437E+02 0.16645163228E+02
 0.19379044796E+02 0.22093373434E+02 0.24562801201E+02 0.26533990560E+02 0.27769316626E+02
 0.28099958989E+02 0.27468876849E+02 0.25946217274E+02 0.23711201735E+02 0.21008279609E+02
 0.18094389644E+02 0.15195107799E+02 0.12480488709E+02 0.10060511682E+02 0.79920109039E+01
 0.62886392222E+01 0.49308053764E+01 0.38767905105E+01 0.30753694663E+01 0.24770210800E+01
 0.20402565207E+01 0.17325590928E+01 0.15284247427E+01 0.14322545645E+01 0.13852356644E+01
 0.13922942719E+01 0.14451486569E+01 0.15387535515E+01 0.16708347493E+01 0.18407237371E+01
 0.20479603408E+01 0.22912721397E+01 0.25680130549E+01 0.28735516079E+01 0.32002674909E+01
 0.35367072550E+01 0.38679411319E+01 0.41773703766E+01 0.44489546118E+01 0.46687828349E+01
 0.48263100312E+01 0.49164792730E+01 0.49428072394E+01 0.49195581395E+01 0.48709862113E+01
 0.48278594612E+01 0.48237488864E+01 0.48934501065E+01 0.50736529392E+01 0.54039316192E+01
 0.59259121618E+01 0.66795775390E+01 0.76968063848E+01 0.89930501040E+01 0.10558774259E+02
 0.12352512066E+02 0.14296617086E+02 0.16276137132E+02 0.18142371834E+02 0.19724693814E+02
 0.20853342242E+02 0.21390393268E+02 0.21259733562E+02 0.20465193804E+02 0.19090248834E+02
 0.17279444614E+02 0.15207681662E+02 0.13047346036E+02 0.10943472067E+02 0.90022176007E+01
 0.72904543301E+01 0.58402795052E+01 0.46545367315E+01 0.37137299658E+01 0.29853257692E+01
 0.24335508460E+01 0.20262005065E+01 0.17369653436E+01 0.15447421364E+01 0.14843591894E+01
 0.14511078811E+01 0.14715179135E+01 0.15386808197E+01 0.16485559192E+01 0.17997796777E+01
 0.19927548408E+01 0.22285233291E+01 0.25078092618E+01 0.28299980264E+01 0.31917260894E+01
 0.35853899172E+01 0.39984417964E+01 0.44140384619E+01 0.48125629848E+01 0.51729221548E+01
 0.54734201199E+01 0.56936340946E+01 0.58186703734E+01 0.58446576670E+01 0.57820374880E+01
 0.56542407238E+01 0.54928885753E+01 0.53328721836E+01 0.52095958702E+01 0.51582208447E+01
 0.52135403487E+01 0.54094319365E+01 0.57773621523E+01 0.63434984837E+01 0.71240691187E+01
 0.81192720439E+01 0.93071051090E+01 0.10639087783E+02 0.12039361158E+02 0.13407759253E+02
 0.14627341568E+02 0.15577212640E+02 0.16150348133E+02 0.16273125540E+02 0.15920707117E+02
 0.15122846726E+02 0.13957842847E+02 0.12536320708E+02 0.10979954146E+02 0.94019395885E+01
 0.78944178757E+01 0.65235370253E+01 0.53292584043E+01 0.43274183249E+01 0.35140194417E+01
 0.28720445577E+01 0.23789827393E+01 0.20123067617E+01 0.17519253418E+01 0.15807087682E+01
 0.15589806843E+01 0.15457956831E+01 0.15848500103E+01 0.16704535807E+01 0.17995456212E+01
 0.19718627851E+01 0.21890848591E+01 0.24537401040E+01 0.27684810099E+01 0.31351313635E+01
 0.35528621335E+01 0.40160557407E+01 0.45130059273E+01 0.50258961594E+01 0.55315792670E+01
 0.60025522865E+01 0.64083150038E+01 0.67183361800E+01 0.69076071730E+01 0.69634276632E+01
 0.68897623547E+01 0.67065138496E+01 0.64449028021E+01 0.61424082154E+01 0.58391336768E+01
 0.55750022305E+01 0.53871152623E+01 0.53078279691E+01 0.53639414032E+01 0.55762114375E+01
 0.59580670057E+01 0.65130584933E+01 0.72311014814E+01 0.80843019576E+01 0.90243344570E+01
 0.99835760138E+01 0.10880566130E+02 0.11628650730E+02 0.12146687577E+02 0.12371136777E+02
 0.12267604459E+02 0.11837995890E+02 0.11119888537E+02 0.10178111097E+02 0.90920618598E+01
 0.79432557765E+01 0.68057505611E+01 0.57395589919E+01 0.47863396841E+01 0.39678897043E+01
 0.32887199796E+01 0.27421106924E+01 0.23163757796E+01 0.19983936736E+01 0.17746720907E+01
 0.16320817449E+01 0.16533833088E+01 0.16669782448E+01 0.17307966696E+01 0.18400977880E+01
 0.19925740528E+01 0.21889724048E+01 0.24323434154E+01 0.27267602254E+01 0.30767189570E+01
 0.34865965783E+01 0.39588826104E+01 0.44915328961E+01 0.50758128780E+01 0.56949920302E+01
 0.63235004348E+01 0.69270572697E+01 0.74650476075E+01 0.78956531380E+01 0.81828914214E+01
 0.83037205989E+01 0.82527770003E+01 0.80429745459E+01 0.77025848867E+01 0.72711967177E+01
 0.67957284209E+01 0.63255330671E+01 0.59063682595E+01 0.55755270744E+01 0.53603146080E+01
 0.52790758955E+01 0.53423754525E+01 0.55531456171E+01 0.59057400071E+01 0.63836980191E+01
 0.69568634146E+01 0.75803378769E+01 0.81973860923E+01 0.87455378501E+01 0.91637282498E+01
 0.93998361974E+01 0.94187479979E+01 0.92089672963E+01 0.87843134797E+01 0.81796664703E+01
 0.74434966670E+01 0.66306035943E+01 0.57960568678E+01 0.49894449448E+01 0.42492958488E+01
 0.35994891774E+01 0.30498207203E+01 0.26004874023E+01 0.22472697904E+01 0.19841674048E+01
 0.18035414022E+01 0.16963101960E+01 0.17657787742E+01 0.18132114886E+01 0.19084483956E+01
 0.20476284921E+01 0.22290466914E+01 0.24540237619E+01 0.27266230703E+01 0.30523837542E+01
 0.34376185966E+01 0.38893034647E+01 0.44137840413E+01 0.50137486924E+01 0.56849720930E+01
 0.64137416676E+01 0.71744758578E+01 0.79282634058E+01 0.86249709051E+01 0.92101129256E+01
 0.96341135067E+01 0.98604556994E+01 0.98710012612E+01 0.96683441879E+01 0.92754398906E+01
 0.87330218261E+01 0.80951674110E+01 0.74225502725E+01 0.67735470867E+01 0.61960734087E+01
 0.57239119912E+01 0.53778650788E+01 0.51684277836E+01 0.50974524836E+01 0.51590729051E+01
 0.53402958291E+01 0.56203840487E+01 0.59693289098E+01 0.63478921042E+01 0.67107824098E+01
 0.70117199209E+01 0.72087603545E+01 0.72697905542E+01 0.71776961357E+01 0.69329037541E+01
 0.65517868638E+01 0.60624494531E+01 0.55003077199E+01 0.49039131706E+01 0.43103293698E+01
 0.37506204259E+01 0.32470802294E+01 0.28130477297E+01 0.24547525049E+01 0.21738342949E+01
 0.19690897837E+01 0.18369198807E+01 0.17714848778E+01 0.18944785970E+01 0.19825592018E+01
 0.21160691482E+01 0.22919779329E+01 0.25092885701E+01 0.27694542396E+01 0.30766500976E+01
 0.34371977450E+01 0.38588979549E+01 0.43511230781E+01 0.49243192863E+01 0.55870318998E+01
 0.63411693856E+01 0.71776893993E+01 0.80732220195E+01 0.89875266670E+01 0.98640376092E+01
 0.10636208876E+02 0.11238258133E+02 0.11615624177E+02 0.11732468305E+02 0.11576847106E+02
 0.11163734003E+02 0.10534127550E+02 0.97492694227E+01 0.88812553585E+01 0.80021557005E+01
 0.71740240176E+01 0.64427519103E+01 0.58373026830E+01 0.53722798323E+01 0.50505583035E+01
 0.48653851089E+01 0.48030548741E+01 0.48453021542E+01 0.49694350957E+01 0.51470503772E+01
 0.53444650606E+01 0.55258972256E+01 0.56575847796E+01 0.57115698031E+01 0.56692682331E+01
 0.55240178132E+01 0.52810671969E+01 0.49553858911E+01 0.45690720529E+01 0.41485053831E+01
 0.37202921236E+01 0.33072072713E+01 0.29267955208E+01 0.25926274015E+01 0.23153520383E+01
 0.21021045677E+01 0.19557434029E+01 0.18752402779E+01 0.18567046365E+01 0.20369508730E+01
 0.21711062718E+01 0.23496260724E+01 0.25698614664E+01 0.28315245208E+01 0.31360025928E+01
 0.34864652398E+01 0.38885779370E+01 0.43507061150E+01 0.48839878936E+01 0.55024260982E+01
 0.62208554395E+01 0.70493204614E+01 0.79861203297E+01 0.90126063050E+01 0.10090170573E+02
 0.11159543962E+02 0.12144830549E+02 0.12963542080E+02 0.13539329246E+02 0.13813300554E+02
 0.13753401279E+02 0.13361863730E+02 0.12677155788E+02 0.11767030663E+02 0.10715218969E+02
 0.96078575212E+01 0.85228982826E+01 0.75225594287E+01 0.66493834485E+01 0.59266039243E+01
 0.53611822369E+01 0.49472536725E+01 0.46699099049E+01 0.45095121623E+01 0.44444752814E+01
 0.44510175129E+01 0.45021385595E+01 0.45688570903E+01 0.46232677539E+01 0.46412736943E+01
 0.46047756902E+01 0.45037837246E+01 0.43372551134E+01 0.41118729712E+01 0.38403155303E+01
 0.35399013770E+01 0.32299305289E+01 0.29275591194E+01 0.26458795862E+01 0.23961782121E+01
 0.21903865590E+01 0.20394282022E+01 0.19495257108E+01 0.19213051544E+01 0.19519279199E+01
 0.21888943703E+01 0.23724419848E+01 0.26022507486E+01 0.28753783082E+01 0.31916367050E+01
 0.35521541978E+01 0.39582180702E+01 0.44129989793E+01 0.49238230249E+01 0.55026379698E+01
 0.61658169242E+01 0.69333519113E+01 0.78242341431E+01 0.88474297076E+01 0.99931179454E+01
 0.11227943105E+02 0.12493578240E+02 0.13708383381E+02 0.14774886760E+02 0.15593496299E+02
 0.16078310796E+02 0.16171616297E+02 0.15856064352E+02 0.15160867818E+02 0.14156272697E+02
 0.12937251389E+02 0.11605619869E+02 0.10257545328E+02 0.89751121216E+01 0.78193126285E+01
 0.68265744873E+01 0.60109045160E+01 0.53690583971E+01 0.48856776338E+01 0.45385692000E+01
 0.43038354855E+01 0.41580511149E+01 0.40770646250E+01 0.40353039966E+01 0.40078921365E+01
 0.39732560361E+01 0.39142988735E+01 0.38194887074E+01 0.36843463028E+01 0.35112363788E+01
 0.33072296204E+01 0.30825724441E+01 0.28500644093E+01 0.26230796443E+01 0.24130838250E+01
 0.22301849162E+01 0.20856804345E+01 0.19912727330E+01 0.19545566784E+01 0.19768357206E+01
 0.20558766997E+01 0.23442587952E+01 0.25787607329E+01 0.28652627643E+01 0.32003847585E+01
 0.35829687861E+01 0.40133274380E+01 0.44905076779E+01 0.50136598435E+01 0.55868240565E+01
 0.62212404566E+01 0.69344531944E+01 0.77495473919E+01 0.86928097019E+01 0.97852445093E+01
 0.11030287373E+02 0.12405015431E+02 0.13856881923E+02 0.15303358012E+02 0.16635977797E+02
 0.17733107830E+02 0.18479843751E+02 0.18788361506E+02 0.18614616386E+02 0.17968984965E+02
 0.16915385779E+02 0.15556066455E+02 0.14009797972E+02 0.12394594569E+02 0.10816594754E+02
 0.93601506247E+01 0.80798385503E+01 0.69999575412E+01 0.61211870545E+01 0.54283183498E+01
 0.48966486897E+01 0.44985321210E+01 0.42082587634E+01 0.40019445005E+01 0.38550960116E+01
 0.37433480837E+01 0.36456954653E+01 0.35456571277E+01 0.34307980443E+01 0.32941189880E+01
 0.31357551127E+01 0.29609424855E+01 0.27761472633E+01 0.25883692606E+01 0.24068226654E+01
 0.22425975657E+01 0.21067492892E+01 0.20100285731E+01 0.19628019836E+01 0.19722708317E+01
 0.20400465922E+01 0.21644262448E+01 0.24968424281E+01 0.27826914365E+01 0.31296908580E+01
 0.35348270697E+01 0.39953551400E+01 0.45099503597E+01 0.50755213742E+01 0.56867228705E+01
 0.63419651666E+01 0.70490834937E+01 0.78251642845E+01 0.86945131600E+01 0.96876214544E+01
 0.10835556625E+02 0.12156770559E+02 0.13643607667E+02 0.15255289917E+02 0.16915289003E+02
 0.18511554572E+02 0.19905721248E+02 0.20954732078E+02 0.21537402382E+02 0.21576572490E+02
 0.21053978851E+02 0.20015513873E+02 0.18561823858E+02 0.16826092542E+02 0.14950549010E+02
 0.13069380210E+02 0.11294982491E+02 0.97055913137E+01 0.83407243573E+01 0.72079422319E+01
 0.62937800851E+01 0.55718519832E+01 0.50097669267E+01 0.45765031942E+01 0.42455781687E+01
 0.39923498466E+01 0.37920866345E+01 0.36227883035E+01 0.34676798365E+01 0.33139250995E+01
 0.31522770145E+01 0.29800882604E+01 0.28017668370E+01 0.26237764706E+01 0.24510205537E+01
 0.22893551380E+01 0.21485662254E+01 0.20403382788E+01 0.19748901915E+01 0.19606059358E+01
 0.20040225239E+01 0.21080770242E+01 0.22724011471E+01 0.26422601990E+01 0.29780829347E+01
 0.33864838369E+01 0.38661582504E+01 0.44135243136E+01 0.50251880182E+01 0.56961087929E+01
 0.64171583548E+01 0.71798568915E+01 0.79850789244E+01 0.88461501388E+01 0.97863302570E+01
 0.10837173764E+02 0.12035755286E+02 0.13413605594E+02 0.14980314004E+02 0.16711799039E+02
 0.18544951692E+02 0.20374464115E+02 0.22056079095E+02 0.23425041794E+02 0.24326618160E+02
 0.24645341154E+02 0.24325601738E+02 0.23383425635E+02 0.21905591599E+02 0.20031670855E+02
 0.17925867731E+02 0.15751492707E+02 0.13651676441E+02 0.11733365605E+02 0.10058299625E+02
 0.86472319877E+01 0.74925404214E+01 0.65684200076E+01 0.58376908096E+01 0.52607835377E+01
 0.48041606070E+01 0.44407914684E+01 0.41456339076E+01 0.38953828097E+01 0.36720197749E+01
 0.34627451689E+01 0.32573260273E+01 0.30497022585E+01 0.28416281814E+01 0.26404332112E+01
 0.24529925482E+01 0.22849511168E+01 0.21446417558E+01 0.20431172772E+01 0.19898180384E+01
 0.19912409441E+01 0.20532599858E+01 0.21811039386E+01 0.23772039929E+01 0.27784150904E+01
 0.31591341405E+01 0.36253048565E+01 0.41784562725E+01 0.48163385161E+01 0.55341876459E+01
 0.63250090759E+01 0.71769892570E+01 0.80753411859E+01 0.90113768834E+01 0.99899293811E+01
 0.11029109684E+02 0.12157799321E+02 0.13414119884E+02 0.14837997158E+02 0.16454888576E+02
 0.18259850375E+02 0.20208847177E+02 0.22213354794E+02 0.24137576788E+02 0.25808673153E+02
 0.27045117371E+02 0.27691944295E+02 0.27649621877E+02 0.26893745353E+02 0.25483720776E+02
 0.23552776922E+02 0.21278938179E+02 0.18850938953E+02 0.16441717349E+02 0.14189544161E+02
 0.12185424726E+02 0.10471964228E+02 0.90538768199E+01 0.79099094306E+01 0.70004958071E+01
 0.62770076545E+01 0.56945632754E+01 0.52189013401E+01 0.48228387894E+01 0.44819192163E+01
 0.41764131010E+01 0.38933658542E+01 0.36234946975E+01 0.33594213557E+01 0.30995812296E+01
 0.28502362441E+01 0.26204954927E+01 0.24179385246E+01 0.22507704244E+01 0.21298739612E+01
 0.20651349984E+01 0.20623859818E+01 0.21264126052E+01 0.22638403285E+01 0.24804228829E+01
 0.29048120238E+01 0.33195517783E+01 0.38341113611E+01 0.44532752926E+01 0.51786624201E+01
 0.60061465275E+01 0.69269337070E+01 0.79270626766E+01 0.89872097095E+01 0.10089104626E+02
 0.11225320946E+02 0.12403365586E+02 0.13644110893E+02 0.14980448742E+02 0.16453547107E+02
 0.18099959164E+02 0.19933685133E+02 0.21933306440E+02 0.24034537833E+02 0.26123520504E+02
 0.28037224003E+02 0.29582576186E+02 0.30571919773E+02 0.30860242867E+02 0.30375002618E+02
 0.29135382692E+02 0.27252724545E+02 0.24905502882E+02 0.22299420365E+02 0.19632563096E+02
 0.17073135281E+02 0.14744909798E+02 0.12719978750E+02 0.11022958298E+02 0.96424529629E+01
 0.85410509869E+01 0.76646535273E+01 0.69563647942E+01 0.63694919475E+01 0.58697721940E+01
 0.54300390443E+01 0.50285665490E+01 0.46515100687E+01 0.42915442500E+01 0.39436993748E+01
 0.36059830878E+01 0.32829161344E+01 0.29838758020E+01 0.27180813467E+01 0.24944366330E+01
 0.23244288592E+01 0.22200042088E+01 0.21887343371E+01 0.22350306558E+01 0.23652309516E+01
 0.25870687051E+01 0.30230861880E+01 0.34541175510E+01 0.40016081470E+01 0.46733003108E+01
 0.54760520864E+01 0.64088984209E+01 0.74623626171E+01 0.86205071878E+01 0.98611887798E+01
 0.11158906714E+02 0.12493364383E+02 0.13857128493E+02 0.15257007053E+02 0.16713156486E+02
 0.18258334139E+02 0.19931049005E+02 0.21759921549E+02 0.23747351789E+02 0.25858471599E+02
 0.28011730082E+02 0.30071331781E+02 0.31853328813E+02 0.33153284742E+02 0.33787296069E+02
 0.33632495534E+02 0.32658209812E+02 0.30938469633E+02 0.28635761243E+02 0.25960538840E+02
 0.23128473562E+02 0.20332352955E+02 0.17726117925E+02 0.15413815767E+02 0.13446084041E+02
 0.11827328995E+02 0.10527454376E+02 0.94926132920E+01 0.86579989764E+01 0.79632024409E+01
 0.73614943242E+01 0.68186485599E+01 0.63093707653E+01 0.58180085065E+01 0.53388283364E+01
 0.48716656588E+01 0.44185019070E+01 0.39849915604E+01 0.35813044651E+01 0.32185930747E+01
 0.29068451236E+01 0.26572810564E+01 0.24829113278E+01 0.23942670902E+01 0.23975499091E+01
 0.24986450246E+01 0.27052540372E+01 0.31395627067E+01 0.35627650767E+01 0.41219208113E+01
 0.48271616492E+01 0.56899851117E+01 0.67142067206E+01 0.78919624389E+01 0.92064249740E+01
 0.10634120778E+02 0.12145683119E+02 0.13710566861E+02 0.15305112628E+02 0.16917275649E+02
 0.18547383633E+02 0.20209480138E+02 0.21931169120E+02 0.23745159566E+02 0.25673703052E+02
 0.27713508885E+02 0.29822623802E+02 0.31906924017E+02 0.33813298439E+02 0.35342540622E+02
 0.36287506094E+02 0.36481903654E+02 0.35840717091E+02 0.34387175309E+02 0.32252363463E+02
 0.29637778242E+02 0.26767346717E+02 0.23850905057E+02 0.21064505989E+02 0.18538599807E+02
 0.16350051293E+02 0.14523155346E+02 0.13039949659E+02 0.11852711911E+02 0.10895819801E+02
 0.10099458745E+02 0.94025557396E+01 0.87584492765E+01 0.81342644405E+01 0.75106689222E+01
 0.68823283706E+01 0.62543037295E+01 0.56360744920E+01 0.50394200110E+01 0.44792458789E+01
 0.39715088990E+01 0.35294103392E+01 0.31637420836E+01 0.28859502195E+01 0.27076322685E+01
 0.26375272869E+01 0.26819228831E+01 0.28472675671E+01 0.32676118499E+01 0.36542447482E+01
 0.41984694901E+01 0.49125634486E+01 0.58108366334E+01 0.69017098292E+01 0.81814479139E+01
 0.96350959826E+01 0.11240004312E+02 0.12966419092E+02 0.14778109281E+02 0.16637308451E+02
 0.18510960858E+02 0.20374327231E+02 0.22214404133E+02 0.24035012778E+02 0.25857708836E+02
 0.27712900765E+02 0.29624272510E+02 0.31591700951E+02 0.33565946160E+02 0.35430188429E+02
 0.37024328214E+02 0.38161499351E+02 0.38661300609E+02 0.38393816437E+02 0.37318001594E+02
 0.35499150214E+02 0.33097564124E+02 0.30335872860E+02 0.27449637298E+02 0.24630150825E+02
 0.22021833014E+02 0.19718380214E+02 0.17761412303E+02 0.16147621723E+02 0.14840687175E+02
 0.13781895398E+02 0.12899952908E+02 0.12122718466E+02 0.11388148621E+02 0.10650445686E+02
 0.98825731143E+01 0.90771897806E+01 0.82439397083E+01 0.74024401177E+01 0.65760240337E+01
 0.57896072390E+01 0.50680046224E+01 0.44318397862E+01 0.38952004944E+01 0.34683391293E+01
 0.31610078120E+01 0.29818774688E+01 0.29368950175E+01 0.30304862322E+01 0.34276518455E+01
 0.37463633669E+01 0.42445659791E+01 0.49366461032E+01 0.58382600804E+01 0.69610364889E+01
 0.83068083363E+01 0.98660272042E+01 0.11620038216E+02 0.13542017022E+02 0.15595206195E+02
 0.17732914925E+02 0.19902684960E+02 0.22052194048E+02 0.24135942275E+02 0.26124439479E+02
 0.28013142494E+02 0.29823412786E+02 0.31592137247E+02 0.33338575084E+02 0.35027465627E+02
 0.36609991473E+02 0.38010439293E+02 0.39110174551E+02 0.39758856712E+02 0.39812369309E+02
 0.39179233443E+02 0.37853416900E+02 0.35920104925E+02 0.33536291015E+02 0.30901473441E+02
 0.28233607724E+02 0.25722468660E+02 0.23468394957E+02 0.21518488184E+02 0.19880237091E+02
 0.18530725928E+02 0.17423819321E+02 0.16494859915E+02 0.15667767603E+02 0.14866987590E+02
 0.14030181690E+02 0.13117093733E+02 0.12113894790E+02 0.11032648083E+02 0.99046420708E+01
 0.87701440282E+01 0.76705160346E+01 0.66445097932E+01 0.57251815292E+01 0.49362996910E+01
 0.42918831004E+01 0.37998480091E+01 0.34653163259E+01 0.32910249244E+01 0.32778370780E+01
 0.36458004981E+01 0.38631025996E+01 0.42809949879E+01 0.49148262851E+01 0.57810819379E+01
 0.68934293074E+01 0.82592755171E+01 0.98769614513E+01 0.11734997388E+02 0.13812276044E+02
 0.16076044163E+02 0.18477902073E+02 0.20952463893E+02 0.23421972714E+02 0.25806353629E+02
 0.28037157234E+02 0.30072708206E+02 0.31908064580E+02 0.33566562159E+02 0.35027946559E+02
 0.36272871753E+02 0.37324827525E+02 0.38217025776E+02 0.38948234576E+02 0.39457877794E+02
 0.39639767574E+02 0.39386075982E+02 0.38633676974E+02 0.37388263222E+02 0.35720071711E+02
 0.33743286281E+02 0.31597749610E+02 0.29442336684E+02 0.27446135906E+02 0.25696801028E+02
 0.24201976223E+02 0.22946877363E+02 0.21897956941E+02 0.21001795850E+02 0.20185861696E+02
 0.19366796835E+02 0.18465761867E+02 0.17424499078E+02 0.16216641646E+02 0.14852087609E+02
 0.13372862160E+02 0.11840720377E+02 0.10322258063E+02 0.88789009070E+01 0.75626070148E+01
 0.64128266385E+01 0.54537912187E+01 0.46956567995E+01 0.41396567305E+01 0.37826727486E+01
 0.36194776268E+01 0.39539788913E+01 0.40320052740E+01 0.43330136531E+01 0.48695369172E+01
 0.56579837759E+01 0.67136745441E+01 0.80487842693E+01 0.96698333146E+01 0.11574185137E+02
 0.13748289952E+02 0.16166431351E+02 0.18785554063E+02 0.21537694402E+02 0.24328401497E+02
 0.27046652416E+02 0.29583650314E+02 0.31854067062E+02 0.33813187801E+02 0.35429382835E+02
 0.36609742486E+02 0.37325413150E+02 0.37647033463E+02 0.37716546745E+02 0.37685500953E+02
 0.37648503812E+02 0.37611426648E+02 0.37510918112E+02 0.37264018837E+02 0.36810459022E+02
 0.36126105977E+02 0.35213661671E+02 0.34092602469E+02 0.32805627263E+02 0.31438775562E+02
 0.30132672752E+02 0.29000592450E+02 0.28037986618E+02 0.27217462898E+02 0.26495243314E+02
 0.25805300969E+02 0.25060988333E+02 0.24168174737E+02 0.23046495044E+02 0.21650000626E+02
 0.19980025825E+02 0.18086545412E+02 0.16056503077E+02 0.13992609955E+02 0.11992662506E+02
 0.10137992597E+02 0.84899495416E+01 0.70884643838E+01 0.59519220273E+01 0.50813342067E+01
 0.44674362372E+01 0.40963475093E+01 0.43927378206E+01 0.42847217582E+01 0.44290782053E+01
 0.48289898296E+01 0.54974739864E+01 0.64506131346E+01 0.77041226687E+01 0.92709804852E+01
 0.11156902902E+02 0.13356675180E+02 0.15853302733E+02 0.18613975956E+02 0.21578637780E+02
 0.24649750864E+02 0.27696372727E+02 0.30574462900E+02 0.33153931494E+02 0.35341721489E+02
 0.37022345562E+02 0.38008696312E+02 0.38217162768E+02 0.37717817340E+02 0.36728488531E+02
 0.35556569779E+02 0.34501310618E+02 0.33763801014E+02 0.33413321992E+02 0.33415768018E+02
 0.33684900267E+02 0.34114518341E+02 0.34583594849E+02 0.34957642505E+02 0.35111874398E+02
 0.34978535383E+02 0.34592736666E+02 0.34101379040E+02 0.33669537874E+02 0.33305235627E+02
 0.32969155011E+02 0.32597703762E+02 0.32097896157E+02 0.31355725077E+02 0.30259966980E+02
 0.28733693619E+02 0.26760490260E+02 0.24395361218E+02 0.21755703465E+02 0.18993974566E+02
 0.16263083847E+02 0.13690799653E+02 0.11370940171E+02 0.93648693331E+01 0.77042844116E+01
 0.63947465935E+01 0.54227614797E+01 0.47644354659E+01 0.50154915816E+01 0.46604044098E+01
 0.46017907530E+01 0.48256653252E+01 0.53352009703E+01 0.61438267205E+01 0.72685162919E+01
 0.87257944099E+01 0.10527417295E+02 0.12676175253E+02 0.15164775457E+02 0.17973247190E+02
 0.21056687117E+02 0.24327787518E+02 0.27651305862E+02 0.30860301679E+02 0.33786182524E+02
 0.36286592398E+02 0.38160629047E+02 0.39108776422E+02 0.38947543485E+02 0.37686718709E+02
 0.35558210445E+02 0.32985727820E+02 0.30481986209E+02 0.28507315045E+02 0.27361658070E+02
 0.27158334426E+02 0.27860817154E+02 0.29325953806E+02 0.31322925850E+02 0.33546523625E+02
 0.35660229075E+02 0.37378280571E+02 0.38556052812E+02 0.39238967408E+02 0.39636873544E+02
 0.39984534297E+02 0.40303401136E+02 0.40527113950E+02 0.40544855643E+02 0.40206140385E+02
 0.39347292150E+02 0.37836293286E+02 0.35619342451E+02 0.32748668222E+02 0.29378984911E+02
 0.25732342646E+02 0.22044882539E+02 0.18519344003E+02 0.15302461389E+02 0.12486447150E+02
 0.10119122847E+02 0.82123288164E+01 0.67500023989E+01 0.56983146864E+01 0.58913776083E+01
 0.52091815202E+01 0.48898404648E+01 0.48949653896E+01 0.52093634094E+01 0.58370402118E+01
 0.67918497430E+01 0.80902341498E+01 0.97467752601E+01 0.11770733810E+02 0.14164625299E+02
 0.16922223888E+02 0.20017187871E+02 0.23381613414E+02 0.26890808781E+02 0.30371103479E+02
 0.33628450909E+02 0.36480261811E+02 0.38662549050E+02 0.39760262882E+02 0.39457818489E+02
 0.37648510647E+02 0.34502462591E+02 0.30482926523E+02 0.26271389966E+02 0.22602405442E+02
 0.20080652391E+02 0.19072231476E+02 0.19695240178E+02 0.21855310442E+02 0.25268792708E+02
 0.29479124393E+02 0.33915044151E+02 0.38014150367E+02 0.41374781002E+02 0.43863880552E+02
 0.45625475766E+02 0.46986124758E+02 0.48243687906E+02 0.49395519673E+02 0.50303464238E+02
 0.50754917777E+02 0.50495991742E+02 0.49294766410E+02 0.47017209255E+02 0.43684726943E+02
 0.39486447869E+02 0.34738087943E+02 0.29802638351E+02 0.25007025293E+02 0.20590262429E+02
 0.16695699818E+02 0.13390805481E+02 0.10690209566E+02 0.85722839609E+01 0.69919207654E+01
 0.71037798533E+01 0.59929017750E+01 0.53392030219E+01 0.50746526363E+01 0.51570518543E+01
 0.55718684396E+01 0.63230598881E+01 0.74224466303E+01 0.88839180823E+01 0.10720689653E+02
 0.12943634208E+02 0.15559144233E+02 0.18559474665E+02 0.21900702896E+02 0.25479954738E+02
 0.29132602904E+02 0.32655186091E+02 0.35839249706E+02 0.38395980271E+02 0.39816039913E+02
 0.39641216328E+02 0.37610607867E+02 0.33763184048E+02 0.28507345430E+02 0.22602057451E+02
 0.17007835638E+02 0.12652225999E+02 0.10229157433E+02 0.10115699391E+02 0.12377584476E+02
 0.16781874776E+02 0.22797092558E+02 0.29643882509E+02 0.36451632214E+02 0.42487573638E+02
 0.47353211332E+02 0.51053275256E+02 0.53913807381E+02 0.56396839138E+02 0.58802188276E+02
 0.61019486734E+02 0.62756013296E+02 0.63623648004E+02 0.63227022144E+02 0.61278543471E+02
 0.57702774615E+02 0.52686625318E+02 0.46647798276E+02 0.40127694458E+02 0.33652722521E+02
 0.27625757950E+02 0.22287775840E+02 0.17741939677E+02 0.14001024681E+02 0.11026709010E+02
 0.87537610830E+01 0.87429943934E+01 0.70816035695E+01 0.60022560724E+01 0.54047288961E+01
 0.52130908973E+01 0.53848024921E+01 0.59054964411E+01 0.67766240642E+01 0.80073883050E+01
 0.96117864576E+01 0.11606194984E+02 0.14006205850E+02 0.16819225107E+02 0.20025524813E+02
 0.23551576660E+02 0.27255786778E+02 0.30941419943E+02 0.34388412580E+02 0.37319753481E+02
 0.39182048833E+02 0.39387267044E+02 0.37509487503E+02 0.33411694785E+02 0.27361200909E+02
 0.20079897964E+02 0.12650817776E+02 0.62739663484E+01 0.19871684111E+01 0.49343201849E+00
 0.21183034543E+01 0.68033358898E+01 0.14073208585E+02 0.23040980155E+02 0.32559252512E+02
 0.41519758876E+02 0.49168881000E+02 0.55280402284E+02 0.60116565871E+02 0.64220420543E+02
 0.68137274446E+02 0.72030774272E+02 0.75562669690E+02 0.78184855785E+02 0.79275443018E+02
 0.78300040260E+02 0.74978808379E+02 0.69403451143E+02 0.62049600898E+02 0.53662334019E+02
 0.45052959763E+02 0.36898012037E+02 0.29628481055E+02 0.23433343880E+02 0.18332249184E+02
 0.14255144869E+02 0.11096576486E+02 0.10894783658E+02 0.85455217894E+01 0.69339246622E+01
 0.59264825095E+01 0.54102729098E+01 0.53069815797E+01 0.55750817497E+01 0.61989563812E+01
 0.71782736061E+01 0.85236946131E+01 0.10253451332E+02 0.12388090687E+02 0.14944366453E+02
 0.17922352387E+02 0.21280586437E+02 0.24912049637E+02 0.28642625724E+02 0.32255487780E+02
 0.35499364938E+02 0.37853191421E+02 0.38632693398E+02 0.37261501098E+02 0.33413868613E+02
 0.27158969111E+02 0.19073314475E+02 0.10228063003E+02 0.19852897856E+01 -.43231411375E+01
 -.76578758150E+01 -.73784868939E+01 -.32701568305E+01 0.43935475478E+01 0.14782095436E+02
 0.26591954427E+02 0.38367076839E+02 0.48936812442E+02 0.57740643140E+02 0.64885436212E+02
 0.70944975325E+02 0.76622822494E+02 0.82398637203E+02 0.88108438980E+02 0.93069195208E+02
 0.96403144438E+02 0.97248014258E+02 0.94993741733E+02 0.89489069560E+02 0.81141927831E+02
 0.70848686136E+02 0.59752493241E+02 0.48928006266E+02 0.39139995091E+02 0.30769973729E+02
 0.23891212383E+02 0.18400232932E+02 0.14126585416E+02 0.13628957316E+02 0.10443966134E+02
 0.81844330638E+01 0.66794438074E+01 0.57789213414E+01 0.53644768559E+01 0.53596077783E+01
 0.57247060064E+01 0.64445303624E+01 0.75210220184E+01 0.89695380041E+01 0.10812019550E+02
 0.13069580487E+02 0.15754928004E+02 0.18855072092E+02 0.22303781152E+02 0.25963985924E+02
 0.29637913119E+02 0.33094645992E+02 0.35917158865E+02 0.37386332393E+02 0.36808203312E+02
 0.33683135156E+02 0.27862162846E+02 0.19698730399E+02 0.10117159703E+02 0.49192588576E+00
 -.76592294507E+01 -.13005132655E+02 -.14586236048E+02 -.11869252548E+02 -.48198415486E+01
 0.59626420129E+01 0.19212892128E+02 0.33256459741E+02 0.46518583192E+02 0.58020496940E+02
 0.67597184655E+02 0.75763198991E+02 0.83342446689E+02 0.91041326187E+02 0.99043464291E+02
 0.10669474861E+03 0.11289674021E+03 0.11643217949E+03 0.11626388299E+03 0.11183513624E+03
 0.10329003750E+03 0.91513078950E+02 0.77921364536E+02 0.64061507154E+02 0.51193690095E+02