   9   9   0   0
  0.1255842E+02  0.4913800E-09  0.4913800E-09  0.5405200E-09  0.5000000E-15
  1.000000000000000E-004
  CAR 
 unknown system                          
     14.39482406    -20.37068885  301      1.12598663      1.00000000
    -20.371  0.0000E+00  0.0000E+00
    -20.255  0.0000E+00  0.0000E+00
    -20.139  0.0000E+00  0.0000E+00
    -20.023  0.0000E+00  0.0000E+00
    -19.907  0.0000E+00  0.0000E+00
    -19.791  0.0000E+00  0.0000E+00
    -19.675  0.0000E+00  0.0000E+00
    -19.559  0.0000E+00  0.0000E+00
    -19.444  0.0000E+00  0.0000E+00
    -19.328  0.0000E+00  0.0000E+00
    -19.212  0.0000E+00  0.0000E+00
    -19.096  0.0000E+00  0.0000E+00
    -18.980  0.0000E+00  0.0000E+00
    -18.864  0.0000E+00  0.0000E+00
    -18.748  0.0000E+00  0.0000E+00
    -18.632  0.0000E+00  0.0000E+00
    -18.517  0.0000E+00  0.0000E+00
    -18.401  0.0000E+00  0.0000E+00
    -18.285  0.9332E+00  0.2754E-01
    -18.169  0.1653E+01  0.1777E+00
    -18.053  0.2833E+01  0.4269E+00
    -17.937  0.4757E+01  0.8830E+00
    -17.821  0.8058E+01  0.1714E+01
    -17.705  0.4771E+00  0.1997E+01
    -17.589  0.1534E+01  0.2133E+01
    -17.474  0.3290E+01  0.2389E+01
    -17.358  0.7251E+01  0.3315E+01
    -17.242  0.1983E+01  0.3743E+01
    -17.126  0.8727E+00  0.3899E+01
    -17.010  0.6066E+00  0.3974E+01
    -16.894  0.2986E+01  0.4105E+01
    -16.778  0.7446E+01  0.5027E+01
    -16.662  0.2604E+01  0.5506E+01
    -16.546  0.1516E+01  0.5741E+01
    -16.431  0.9984E+00  0.5886E+01
    -16.315  0.5611E+00  0.5976E+01
    -16.199  0.5676E+02  0.9084E+01
    -16.083  0.0000E+00  0.1200E+02
    -15.967  0.0000E+00  0.1200E+02
    -15.851  0.0000E+00  0.1200E+02
    -15.735  0.0000E+00  0.1200E+02
    -15.619  0.0000E+00  0.1200E+02
    -15.504  0.0000E+00  0.1200E+02
    -15.388  0.0000E+00  0.1200E+02
    -15.272  0.0000E+00  0.1200E+02
    -15.156  0.0000E+00  0.1200E+02
    -15.040  0.0000E+00  0.1200E+02
    -14.924  0.0000E+00  0.1200E+02
    -14.808  0.0000E+00  0.1200E+02
    -14.692  0.0000E+00  0.1200E+02
    -14.576  0.0000E+00  0.1200E+02
    -14.461  0.0000E+00  0.1200E+02
    -14.345  0.0000E+00  0.1200E+02
    -14.229  0.0000E+00  0.1200E+02
    -14.113  0.0000E+00  0.1200E+02
    -13.997  0.0000E+00  0.1200E+02
    -13.881  0.0000E+00  0.1200E+02
    -13.765  0.0000E+00  0.1200E+02
    -13.649  0.0000E+00  0.1200E+02
    -13.533  0.0000E+00  0.1200E+02
    -13.418  0.0000E+00  0.1200E+02
    -13.302  0.0000E+00  0.1200E+02
    -13.186  0.0000E+00  0.1200E+02
    -13.070  0.0000E+00  0.1200E+02
    -12.954  0.0000E+00  0.1200E+02
    -12.838  0.0000E+00  0.1200E+02
    -12.722  0.0000E+00  0.1200E+02
    -12.606  0.0000E+00  0.1200E+02
    -12.491  0.0000E+00  0.1200E+02
    -12.375  0.0000E+00  0.1200E+02
    -12.259  0.0000E+00  0.1200E+02
    -12.143  0.0000E+00  0.1200E+02
    -12.027  0.0000E+00  0.1200E+02
    -11.911  0.0000E+00  0.1200E+02
    -11.795  0.0000E+00  0.1200E+02
    -11.679  0.0000E+00  0.1200E+02
    -11.563  0.0000E+00  0.1200E+02
    -11.448  0.0000E+00  0.1200E+02
    -11.332  0.0000E+00  0.1200E+02
    -11.216  0.0000E+00  0.1200E+02
    -11.100  0.0000E+00  0.1200E+02
    -10.984  0.0000E+00  0.1200E+02
    -10.868  0.0000E+00  0.1200E+02
    -10.752  0.0000E+00  0.1200E+02
    -10.636  0.0000E+00  0.1200E+02
    -10.520  0.0000E+00  0.1200E+02
    -10.405  0.0000E+00  0.1200E+02
    -10.289  0.0000E+00  0.1200E+02
    -10.173  0.0000E+00  0.1200E+02
    -10.057  0.0000E+00  0.1200E+02
     -9.941  0.0000E+00  0.1200E+02
     -9.825  0.0000E+00  0.1200E+02
     -9.709  0.0000E+00  0.1200E+02
     -9.593  0.0000E+00  0.1200E+02
     -9.477  0.0000E+00  0.1200E+02
     -9.362  0.0000E+00  0.1200E+02
     -9.246  0.0000E+00  0.1200E+02
     -9.130  0.0000E+00  0.1200E+02
     -9.014  0.0000E+00  0.1200E+02
     -8.898  0.0000E+00  0.1200E+02
     -8.782  0.0000E+00  0.1200E+02
     -8.666  0.0000E+00  0.1200E+02
     -8.550  0.0000E+00  0.1200E+02
     -8.435  0.0000E+00  0.1200E+02
     -8.319  0.0000E+00  0.1200E+02
     -8.203  0.4012E-01  0.1200E+02
     -8.087  0.3232E+00  0.1202E+02
     -7.971  0.4701E+00  0.1207E+02
     -7.855  0.6818E+00  0.1214E+02
     -7.739  0.8835E+00  0.1223E+02
     -7.623  0.1220E+01  0.1235E+02
     -7.507  0.1694E+01  0.1251E+02
     -7.392  0.3117E+01  0.1277E+02
     -7.276  0.5626E+01  0.1354E+02
     -7.160  0.9023E+00  0.1389E+02
     -7.044  0.4754E+00  0.1397E+02
     -6.928  0.2544E+00  0.1401E+02
     -6.812  0.2603E+00  0.1404E+02
     -6.696  0.4050E+00  0.1407E+02
     -6.580  0.6271E+00  0.1413E+02
     -6.464  0.1064E+01  0.1423E+02
     -6.349  0.1821E+01  0.1439E+02
     -6.233  0.5113E+01  0.1476E+02
     -6.117  0.3150E+01  0.1535E+02
     -6.001  0.1754E+01  0.1563E+02
     -5.885  0.1060E+01  0.1578E+02
     -5.769  0.7177E+00  0.1589E+02
     -5.653  0.4744E+00  0.1595E+02
     -5.537  0.1198E+00  0.1600E+02
     -5.422  0.1314E+01  0.1605E+02
     -5.306  0.3242E+01  0.1632E+02
     -5.190  0.2917E+01  0.1671E+02
     -5.074  0.2900E+01  0.1704E+02
     -4.958  0.2383E+01  0.1736E+02
     -4.842  0.1632E+01  0.1759E+02
     -4.726  0.1194E+01  0.1775E+02
     -4.610  0.8478E+00  0.1787E+02
     -4.494  0.8509E+00  0.1795E+02
     -4.379  0.5092E+01  0.1821E+02
     -4.263  0.9726E+01  0.1994E+02
     -4.147  0.5840E+01  0.2083E+02
     -4.031  0.5489E+01  0.2157E+02
     -3.915  0.1725E+01  0.2210E+02
     -3.799  0.8224E+01  0.2285E+02
     -3.683  0.4257E+01  0.2359E+02
     -3.567  0.1832E+01  0.2394E+02
     -3.451  0.0000E+00  0.2400E+02
     -3.336  0.0000E+00  0.2400E+02
     -3.220  0.0000E+00  0.2400E+02
     -3.104  0.0000E+00  0.2400E+02
     -2.988  0.0000E+00  0.2400E+02
     -2.872  0.0000E+00  0.2400E+02
     -2.756  0.0000E+00  0.2400E+02
     -2.640  0.0000E+00  0.2400E+02
     -2.524  0.0000E+00  0.2400E+02
     -2.409  0.0000E+00  0.2400E+02
     -2.293  0.0000E+00  0.2400E+02
     -2.177  0.6167E+00  0.2400E+02
     -2.061  0.1492E+02  0.2500E+02
     -1.945  0.6057E+01  0.2606E+02
     -1.829  0.6765E+01  0.2671E+02
     -1.713  0.6619E+01  0.2761E+02
     -1.597  0.5897E+01  0.2829E+02
     -1.481  0.6375E+01  0.2935E+02
     -1.366  0.2798E+01  0.2995E+02
     -1.250  0.3283E+01  0.3013E+02
     -1.134  0.8950E+01  0.3144E+02
     -1.018  0.2570E+01  0.3195E+02
     -0.902  0.1920E+02  0.3339E+02
     -0.786  0.1954E+01  0.3394E+02
     -0.670  0.6448E+01  0.3440E+02
     -0.554  0.8601E+01  0.3515E+02
     -0.438  0.1051E+02  0.3641E+02
     -0.323  0.5027E+01  0.3748E+02
     -0.207  0.4786E+01  0.3803E+02
     -0.091  0.1102E+02  0.3921E+02
      0.025  0.5030E+01  0.4012E+02
      0.141  0.1872E+02  0.4128E+02
      0.257  0.6380E+00  0.4201E+02
      0.373  0.1365E+02  0.4280E+02
      0.489  0.3735E+01  0.4373E+02
      0.605  0.4457E+01  0.4426E+02
      0.720  0.7852E+01  0.4495E+02
      0.836  0.7222E+01  0.4604E+02
      0.952  0.8303E+01  0.4678E+02
      1.068  0.2780E+01  0.4797E+02
      1.184  0.0000E+00  0.4800E+02
      1.300  0.0000E+00  0.4800E+02
      1.416  0.0000E+00  0.4800E+02
      1.532  0.0000E+00  0.4800E+02
      1.647  0.0000E+00  0.4800E+02
      1.763  0.0000E+00  0.4800E+02
      1.879  0.0000E+00  0.4800E+02
      1.995  0.0000E+00  0.4800E+02
      2.111  0.0000E+00  0.4800E+02
      2.227  0.0000E+00  0.4800E+02
      2.343  0.0000E+00  0.4800E+02
      2.459  0.0000E+00  0.4800E+02
      2.575  0.0000E+00  0.4800E+02
      2.690  0.0000E+00  0.4800E+02
      2.806  0.0000E+00  0.4800E+02
      2.922  0.0000E+00  0.4800E+02
      3.038  0.0000E+00  0.4800E+02
      3.154  0.0000E+00  0.4800E+02
      3.270  0.0000E+00  0.4800E+02
      3.386  0.0000E+00  0.4800E+02
      3.502  0.0000E+00  0.4800E+02
      3.618  0.0000E+00  0.4800E+02
      3.733  0.0000E+00  0.4800E+02
      3.849  0.0000E+00  0.4800E+02
      3.965  0.0000E+00  0.4800E+02
      4.081  0.0000E+00  0.4800E+02
      4.197  0.0000E+00  0.4800E+02
      4.313  0.0000E+00  0.4800E+02
      4.429  0.0000E+00  0.4800E+02
      4.545  0.0000E+00  0.4800E+02
      4.660  0.0000E+00  0.4800E+02
      4.776  0.0000E+00  0.4800E+02
      4.892  0.0000E+00  0.4800E+02
      5.008  0.0000E+00  0.4800E+02
      5.124  0.0000E+00  0.4800E+02
      5.240  0.0000E+00  0.4800E+02
      5.356  0.0000E+00  0.4800E+02
      5.472  0.0000E+00  0.4800E+02
      5.588  0.0000E+00  0.4800E+02
      5.703  0.0000E+00  0.4800E+02
      5.819  0.0000E+00  0.4800E+02
      5.935  0.0000E+00  0.4800E+02
      6.051  0.0000E+00  0.4800E+02
      6.167  0.0000E+00  0.4800E+02
      6.283  0.0000E+00  0.4800E+02
      6.399  0.0000E+00  0.4800E+02
      6.515  0.0000E+00  0.4800E+02
      6.631  0.0000E+00  0.4800E+02
      6.746  0.0000E+00  0.4800E+02
      6.862  0.0000E+00  0.4800E+02
      6.978  0.0000E+00  0.4800E+02
      7.094  0.0000E+00  0.4800E+02
      7.210  0.7811E-02  0.4800E+02
      7.326  0.4181E-01  0.4800E+02
      7.442  0.1028E+00  0.4801E+02
      7.558  0.1936E+00  0.4803E+02
      7.673  0.2441E+00  0.4805E+02
      7.789  0.2764E+00  0.4808E+02
      7.905  0.2966E+00  0.4812E+02
      8.021  0.3425E+00  0.4815E+02
      8.137  0.3910E+00  0.4820E+02
      8.253  0.4421E+00  0.4824E+02
      8.369  0.4957E+00  0.4830E+02
      8.485  0.5514E+00  0.4836E+02
      8.601  0.6980E+00  0.4843E+02
      8.716  0.8517E+00  0.4852E+02
      8.832  0.8288E+00  0.4862E+02
      8.948  0.8904E+00  0.4872E+02
      9.064  0.9540E+00  0.4882E+02
      9.180  0.1020E+01  0.4894E+02
      9.296  0.1270E+01  0.4906E+02
      9.412  0.1524E+01  0.4923E+02
      9.528  0.1303E+01  0.4940E+02
      9.644  0.1228E+01  0.4955E+02
      9.759  0.1470E+01  0.4970E+02
      9.875  0.1672E+01  0.4988E+02
      9.991  0.1389E+01  0.5009E+02
     10.107  0.1111E+01  0.5023E+02
     10.223  0.2680E+01  0.5042E+02
     10.339  0.8857E+01  0.5100E+02
     10.455  0.4307E+01  0.5202E+02
     10.571  0.5627E+01  0.5251E+02
     10.687  0.7813E+01  0.5338E+02
     10.802  0.4881E+01  0.5417E+02
     10.918  0.2427E+01  0.5455E+02
     11.034  0.5062E+01  0.5496E+02
     11.150  0.5952E+01  0.5578E+02
     11.266  0.5923E+01  0.5628E+02
     11.382  0.6827E+01  0.5702E+02
     11.498  0.5105E+01  0.5780E+02
     11.614  0.1219E+01  0.5809E+02
     11.729  0.1182E+02  0.5899E+02
     11.845  0.2563E+01  0.5964E+02
     11.961  0.8809E+00  0.5982E+02
     12.077  0.5619E+00  0.5989E+02
     12.193  0.4149E+00  0.5995E+02
     12.309  0.2393E+00  0.5999E+02
     12.425  0.0000E+00  0.6000E+02
     12.541  0.0000E+00  0.6000E+02
     12.657  0.0000E+00  0.6000E+02
     12.772  0.0000E+00  0.6000E+02
     12.888  0.0000E+00  0.6000E+02
     13.004  0.0000E+00  0.6000E+02
     13.120  0.0000E+00  0.6000E+02
     13.236  0.0000E+00  0.6000E+02
     13.352  0.0000E+00  0.6000E+02
     13.468  0.0000E+00  0.6000E+02
     13.584  0.0000E+00  0.6000E+02
     13.700  0.0000E+00  0.6000E+02
     13.815  0.0000E+00  0.6000E+02
     13.931  0.0000E+00  0.6000E+02
     14.047  0.0000E+00  0.6000E+02
     14.163  0.0000E+00  0.6000E+02
     14.279  0.0000E+00  0.6000E+02
     14.395  0.0000E+00  0.6000E+02
