       N       E                     dE             d eps       ncg     rms          rms(c)
DAV:   1     0.295159955170E+03    0.29516E+03   -0.25206E+04  1620   0.144E+03
DAV:   2    -0.614252001071E+02   -0.35659E+03   -0.34908E+03  2166   0.329E+02
DAV:   3    -0.803896042888E+02   -0.18964E+02   -0.18907E+02  1938   0.841E+01
DAV:   4    -0.806181139781E+02   -0.22851E+00   -0.22818E+00  1952   0.102E+01
DAV:   5    -0.806223240181E+02   -0.42100E-02   -0.42091E-02  1878   0.136E+00    0.188E+01
RMM:   6    -0.709912863490E+02    0.96310E+01   -0.40525E+01  1720   0.330E+01    0.510E+00
RMM:   7    -0.709752464949E+02    0.16040E-01   -0.15090E+00  1899   0.558E+00    0.337E+00
RMM:   8    -0.709961914633E+02   -0.20945E-01   -0.25141E-01  1830   0.401E+00    0.627E-01
RMM:   9    -0.709889749622E+02    0.72165E-02   -0.54039E-02  1937   0.120E+00    0.131E-01
RMM:  10    -0.709921264432E+02   -0.31515E-02   -0.15056E-02  1896   0.633E-01    0.233E-01
RMM:  11    -0.709907867534E+02    0.13397E-02   -0.25782E-03  1935   0.287E-01    0.684E-02
RMM:  12    -0.709907273658E+02    0.59388E-04   -0.88786E-04  1924   0.154E-01    0.772E-03
RMM:  13    -0.709907294700E+02   -0.21042E-05   -0.23270E-05  1377   0.281E-02
   1 F= -.70990729E+02 E0= -.70990729E+02  d E =0.000000E+00
