<?xml version="1.0" encoding="ISO-8859-1"?>
<modeling>
 <generator>
  <i name="program" type="string">vasp </i>
  <i name="version" type="string">5.4.4.18Apr17-6-g9f103f2a35  </i>
  <i name="subversion" type="string">(build Jul 15 2019 14:02:39) complex            parallel </i>
  <i name="platform" type="string">TEST </i>
  <i name="date" type="string">2024 09 18 </i>
  <i name="time" type="string">14:38:06 </i>
 </generator>
 <incar>
  <i type="string" name="PREC">normal    ! low/normal/accurate</i>
  <i type="string" name="ALGO"> Fast      ! Algorithm for electronic re</i>
  <i type="int" name="ISPIN">     1</i>
  <i type="int" name="NELMIN">     4</i>
  <i name="EDIFF">      0.00001000</i>
  <i type="int" name="NSW">     0</i>
  <i name="ENCUT">    500.00000000</i>
  <i type="string" name="LREAL"> Auto      ! Projection in reciprocal sp</i>
  <i type="int" name="ISMEAR">    -5</i>
  <i name="SIGMA">      0.20000000</i>
  <i type="logical" name="LWAVE"> F  </i>
  <v type="int" name="KPOINT_BSE">    -1     0     0     0</v>
 </incar>
 <structure name="primitive_cell" >
  <crystal>
   <varray name="basis" >
    <v>       4.91380000       0.00000000       0.00000000 </v>
    <v>      -2.45690000       4.25547563       0.00000000 </v>
    <v>       0.00000000       0.00000000       5.40520000 </v>
   </varray>
   <i name="volume">    113.02573808 </i>
   <varray name="rec_basis" >
    <v>       0.20350849       0.11749568       0.00000000 </v>
    <v>       0.00000000       0.23499136       0.00000000 </v>
    <v>       0.00000000       0.00000000       0.18500703 </v>
   </varray>
  </crystal>
  <varray name="positions" >
   <v>       0.46980000       0.00000000      -0.33333333 </v>
   <v>       0.14830000      -0.26620000      -0.45226667 </v>
   <v>       0.41450000       0.26620000      -0.21440000 </v>
   <v>      -0.26620000       0.14830000       0.45226667 </v>
   <v>      -0.41450000      -0.14830000      -0.11893333 </v>
   <v>       0.00000000       0.46980000       0.33333333 </v>
   <v>      -0.46980000      -0.46980000       0.00000000 </v>
   <v>       0.26620000       0.41450000       0.21440000 </v>
   <v>      -0.14830000      -0.41450000       0.11893333 </v>
  </varray>
 </structure>
 <varray name="primitive_index" >
  <v type="int" >        1 </v>
  <v type="int" >        6 </v>
  <v type="int" >        4 </v>
  <v type="int" >        9 </v>
  <v type="int" >        5 </v>
  <v type="int" >        3 </v>
  <v type="int" >        2 </v>
  <v type="int" >        7 </v>
  <v type="int" >        8 </v>
 </varray>
 <kpoints>
  <generation param="Gamma">
   <v type="int" name="divisions">       6        6        5 </v>
   <v name="usershift">      0.00000000       0.00000000       0.00000000 </v>
   <v name="genvec1">      0.16666667      -0.00000000       0.00000000 </v>
   <v name="genvec2">      0.00000000       0.16666667       0.00000000 </v>
   <v name="genvec3">      0.00000000       0.00000000       0.20000000 </v>
   <v name="shift">      0.00000000       0.00000000       0.00000000 </v>
  </generation>
  <varray name="kpointlist" >
   <v>       0.00000000       0.00000000       0.00000000 </v>
   <v>       0.16666667       0.00000000       0.00000000 </v>
   <v>       0.33333333       0.00000000       0.00000000 </v>
   <v>       0.50000000       0.00000000       0.00000000 </v>
   <v>       0.16666667       0.16666667       0.00000000 </v>
   <v>       0.33333333       0.16666667       0.00000000 </v>
   <v>       0.33333333       0.33333333       0.00000000 </v>
   <v>       0.00000000       0.00000000       0.20000000 </v>
   <v>       0.16666667       0.00000000       0.20000000 </v>
   <v>       0.33333333       0.00000000       0.20000000 </v>
   <v>       0.50000000       0.00000000       0.20000000 </v>
   <v>      -0.33333333       0.00000000       0.20000000 </v>
   <v>      -0.16666667       0.00000000       0.20000000 </v>
   <v>       0.16666667       0.16666667       0.20000000 </v>
   <v>       0.33333333       0.16666667       0.20000000 </v>
   <v>       0.50000000       0.16666667       0.20000000 </v>
   <v>       0.33333333       0.33333333       0.20000000 </v>
   <v>       0.00000000       0.00000000       0.40000000 </v>
   <v>       0.16666667       0.00000000       0.40000000 </v>
   <v>       0.33333333       0.00000000       0.40000000 </v>
   <v>       0.50000000       0.00000000       0.40000000 </v>
   <v>      -0.33333333       0.00000000       0.40000000 </v>
   <v>      -0.16666667       0.00000000       0.40000000 </v>
   <v>       0.16666667       0.16666667       0.40000000 </v>
   <v>       0.33333333       0.16666667       0.40000000 </v>
   <v>       0.50000000       0.16666667       0.40000000 </v>
   <v>       0.33333333       0.33333333       0.40000000 </v>
  </varray>
  <varray name="weights" >
   <v>       0.00555556 </v>
   <v>       0.03333333 </v>
   <v>       0.03333333 </v>
   <v>       0.01666667 </v>
   <v>       0.03333333 </v>
   <v>       0.06666667 </v>
   <v>       0.01111111 </v>
   <v>       0.01111111 </v>
   <v>       0.03333333 </v>
   <v>       0.03333333 </v>
   <v>       0.03333333 </v>
   <v>       0.03333333 </v>
   <v>       0.03333333 </v>
   <v>       0.06666667 </v>
   <v>       0.06666667 </v>
   <v>       0.06666667 </v>
   <v>       0.02222222 </v>
   <v>       0.01111111 </v>
   <v>       0.03333333 </v>
   <v>       0.03333333 </v>
   <v>       0.03333333 </v>
   <v>       0.03333333 </v>
   <v>       0.03333333 </v>
   <v>       0.06666667 </v>
   <v>       0.06666667 </v>
   <v>       0.06666667 </v>
   <v>       0.02222222 </v>
  </varray>
  <varray name="tetrahedronlist"  type="int" >
   <v type="int" >        4        2        2        5       13 </v>
   <v type="int" >        4        1        2        2       13 </v>
   <v type="int" >        4        1        2        8       13 </v>
   <v type="int" >        4        2        5       13       14 </v>
   <v type="int" >        8        2        9       13       14 </v>
   <v type="int" >        8        2        8        9       13 </v>
   <v type="int" >        8        3        5        6       14 </v>
   <v type="int" >        8        2        3        5       14 </v>
   <v type="int" >        4        2        3        9       14 </v>
   <v type="int" >        4        3        6       14       15 </v>
   <v type="int" >        4        3       10       14       15 </v>
   <v type="int" >        4        3        9       10       14 </v>
   <v type="int" >        4        4        6        6       15 </v>
   <v type="int" >        4        3        4        6       15 </v>
   <v type="int" >        4        3        4       10       15 </v>
   <v type="int" >        4        4        6       15       16 </v>
   <v type="int" >        4        4       11       15       16 </v>
   <v type="int" >        4        4       10       11       15 </v>
   <v type="int" >        4        3        5        6       16 </v>
   <v type="int" >        4        3        4        6       16 </v>
   <v type="int" >        4        3        4       11       16 </v>
   <v type="int" >        4        3        5       14       16 </v>
   <v type="int" >        4        3       12       14       16 </v>
   <v type="int" >        4        3       11       12       16 </v>
   <v type="int" >        4        2        2        5       14 </v>
   <v type="int" >        4        2        3       12       14 </v>
   <v type="int" >        4        2        2        9       14 </v>
   <v type="int" >        4        2       12       13       14 </v>
   <v type="int" >        4        1        2        2        9 </v>
   <v type="int" >        4        1        2        9       13 </v>
   <v type="int" >        4        1        8        9       13 </v>
   <v type="int" >        4        3        5        6       12 </v>
   <v type="int" >        4        2        3        5       12 </v>
   <v type="int" >        4        2        5       12       13 </v>
   <v type="int" >        4        5        6       12       16 </v>
   <v type="int" >        4        5       12       14       16 </v>
   <v type="int" >        4        5       12       13       14 </v>
   <v type="int" >        8        6        6        7       16 </v>
   <v type="int" >        4        5        6        6       16 </v>
   <v type="int" >        4        5        6       14       16 </v>
   <v type="int" >        8        6        7       16       17 </v>
   <v type="int" >       16        6       15       16       17 </v>
   <v type="int" >        8        6       14       15       16 </v>
   <v type="int" >        8        6        6        7       17 </v>
   <v type="int" >        8        6        6       15       17 </v>
   <v type="int" >        4        3        5        6       15 </v>
   <v type="int" >        4        5        6        6       15 </v>
   <v type="int" >        4        5        6       15       16 </v>
   <v type="int" >        4        3        5       10       15 </v>
   <v type="int" >        4        5       10       14       15 </v>
   <v type="int" >        4        5       14       15       16 </v>
   <v type="int" >        4        2        3        5       10 </v>
   <v type="int" >        4        2        5       10       14 </v>
   <v type="int" >        4        2        9       10       14 </v>
   <v type="int" >        4        4        6        6       11 </v>
   <v type="int" >        8        3        4        6       11 </v>
   <v type="int" >        4        3        6       11       12 </v>
   <v type="int" >        4        6        6       11       15 </v>
   <v type="int" >        8        6       11       15       16 </v>
   <v type="int" >        4        6       11       12       16 </v>
   <v type="int" >        8        6        6        7       15 </v>
   <v type="int" >        8        6        7       15       16 </v>
   <v type="int" >        8        7       15       16       17 </v>
   <v type="int" >        4        4        6        6       16 </v>
   <v type="int" >        4        4        6       11       16 </v>
   <v type="int" >        4        3        6       11       15 </v>
   <v type="int" >        4        3       10       11       15 </v>
   <v type="int" >        4        3        5        6       10 </v>
   <v type="int" >        4        3        4        6       10 </v>
   <v type="int" >        4        4        6       10       11 </v>
   <v type="int" >        4        5        6       10       14 </v>
   <v type="int" >        4        6       10       14       15 </v>
   <v type="int" >        4        6       10       11       15 </v>
   <v type="int" >        4        5        6        6       14 </v>
   <v type="int" >        4        6        6       14       15 </v>
   <v type="int" >        4        3        6       12       14 </v>
   <v type="int" >        4        6       12       14       16 </v>
   <v type="int" >        4        3        4        6       12 </v>
   <v type="int" >        4        4        6       12       16 </v>
   <v type="int" >        4        4       11       12       16 </v>
   <v type="int" >        4        2        2        5        9 </v>
   <v type="int" >        4        2        3        5        9 </v>
   <v type="int" >        4        3        5        9       10 </v>
   <v type="int" >        4        2        5        9       13 </v>
   <v type="int" >        4        5        9       13       14 </v>
   <v type="int" >        4        5        9       10       14 </v>
   <v type="int" >        4        2        3        5       13 </v>
   <v type="int" >        4        3        5       13       14 </v>
   <v type="int" >        4        3       12       13       14 </v>
   <v type="int" >        4        1        2        2        8 </v>
   <v type="int" >        4        2        2        8        9 </v>
   <v type="int" >        4        9       13       14       23 </v>
   <v type="int" >        4        8        9       13       23 </v>
   <v type="int" >        4        8        9       18       23 </v>
   <v type="int" >        4        9       14       23       24 </v>
   <v type="int" >        4        9       19       23       24 </v>
   <v type="int" >        4        9       18       19       23 </v>
   <v type="int" >        4       10       14       15       24 </v>
   <v type="int" >        4        9       10       14       24 </v>
   <v type="int" >        4        9       10       19       24 </v>
   <v type="int" >        4       10       15       24       25 </v>
   <v type="int" >        4       10       20       24       25 </v>
   <v type="int" >        4       10       19       20       24 </v>
   <v type="int" >        4       11       15       16       25 </v>
   <v type="int" >        4       10       11       15       25 </v>
   <v type="int" >        4       10       11       20       25 </v>
   <v type="int" >        4       11       16       25       26 </v>
   <v type="int" >        4       11       21       25       26 </v>
   <v type="int" >        4       11       20       21       25 </v>
   <v type="int" >        4       12       14       16       26 </v>
   <v type="int" >        4       11       12       16       26 </v>
   <v type="int" >        4       11       12       21       26 </v>
   <v type="int" >        4       12       14       24       26 </v>
   <v type="int" >        4       12       22       24       26 </v>
   <v type="int" >        4       12       21       22       26 </v>
   <v type="int" >        4        9       13       14       24 </v>
   <v type="int" >        4       12       13       14       24 </v>
   <v type="int" >        4       12       13       22       24 </v>
   <v type="int" >        4        9       13       19       24 </v>
   <v type="int" >        4       13       19       23       24 </v>
   <v type="int" >        4       13       22       23       24 </v>
   <v type="int" >        4        8        9       13       19 </v>
   <v type="int" >        4        8       13       19       23 </v>
   <v type="int" >        4        8       18       19       23 </v>
   <v type="int" >        4       12       14       16       22 </v>
   <v type="int" >        4       12       13       14       22 </v>
   <v type="int" >        4       13       14       22       23 </v>
   <v type="int" >        4       14       16       22       26 </v>
   <v type="int" >        4       14       22       24       26 </v>
   <v type="int" >        4       14       22       23       24 </v>
   <v type="int" >        8       15       16       17       26 </v>
   <v type="int" >        4       14       15       16       26 </v>
   <v type="int" >        4       14       15       24       26 </v>
   <v type="int" >        8       15       17       26       27 </v>
   <v type="int" >        8       15       25       26       27 </v>
   <v type="int" >        4       15       24       25       26 </v>
   <v type="int" >        8       15       16       17       27 </v>
   <v type="int" >        8       15       16       25       27 </v>
   <v type="int" >        8       16       25       26       27 </v>
   <v type="int" >        4       10       14       15       25 </v>
   <v type="int" >        4       14       15       16       25 </v>
   <v type="int" >        4       14       16       25       26 </v>
   <v type="int" >        4       10       14       20       25 </v>
   <v type="int" >        4       14       20       24       25 </v>
   <v type="int" >        4       14       24       25       26 </v>
   <v type="int" >        4        9       10       14       20 </v>
   <v type="int" >        4        9       14       20       24 </v>
   <v type="int" >        4        9       19       20       24 </v>
   <v type="int" >        4       11       15       16       21 </v>
   <v type="int" >        4       11       12       16       21 </v>
   <v type="int" >        4       12       16       21       22 </v>
   <v type="int" >        4       15       16       21       25 </v>
   <v type="int" >        4       16       21       25       26 </v>
   <v type="int" >        4       16       21       22       26 </v>
   <v type="int" >        8       15       16       17       25 </v>
   <v type="int" >        8       16       17       25       26 </v>
   <v type="int" >        8       17       25       26       27 </v>
   <v type="int" >        4       11       15       16       26 </v>
   <v type="int" >        4       11       15       21       26 </v>
   <v type="int" >        4       15       21       25       26 </v>
   <v type="int" >        4       10       11       15       21 </v>
   <v type="int" >        4       10       15       21       25 </v>
   <v type="int" >        4       10       20       21       25 </v>
   <v type="int" >        4       10       14       15       20 </v>
   <v type="int" >        4       10       11       15       20 </v>
   <v type="int" >        4       11       15       20       21 </v>
   <v type="int" >        4       14       15       20       24 </v>
   <v type="int" >        4       15       20       24       25 </v>
   <v type="int" >        4       15       20       21       25 </v>
   <v type="int" >        4       12       14       16       24 </v>
   <v type="int" >        4       14       15       16       24 </v>
   <v type="int" >        4       15       16       24       25 </v>
   <v type="int" >        4       12       16       22       24 </v>
   <v type="int" >        4       16       22       24       26 </v>
   <v type="int" >        4       16       24       25       26 </v>
   <v type="int" >        4       11       12       16       22 </v>
   <v type="int" >        4       11       16       22       26 </v>
   <v type="int" >        4       11       21       22       26 </v>
   <v type="int" >        4        9       13       14       19 </v>
   <v type="int" >        4        9       10       14       19 </v>
   <v type="int" >        4       10       14       19       20 </v>
   <v type="int" >        4       13       14       19       23 </v>
   <v type="int" >        4       14       19       23       24 </v>
   <v type="int" >        4       14       19       20       24 </v>
   <v type="int" >        4       12       13       14       23 </v>
   <v type="int" >        4       12       14       23       24 </v>
   <v type="int" >        4       12       22       23       24 </v>
   <v type="int" >        4        8        9       13       18 </v>
   <v type="int" >        4        9       13       18       19 </v>
   <v type="int" >        4       13       18       19       23 </v>
   <v type="int" >        4       19       19       23       24 </v>
   <v type="int" >        4       18       19       19       23 </v>
   <v type="int" >        2       18       18       19       19 </v>
   <v type="int" >        2       19       19       24       24 </v>
   <v type="int" >        4       20       24       24       25 </v>
   <v type="int" >        4       19       20       24       24 </v>
   <v type="int" >        8       19       20       23       24 </v>
   <v type="int" >        8       20       24       25       26 </v>
   <v type="int" >        8       20       22       24       26 </v>
   <v type="int" >        8       20       22       23       24 </v>
   <v type="int" >        8       21       25       26       26 </v>
   <v type="int" >        8       20       21       25       26 </v>
   <v type="int" >        8       20       21       22       26 </v>
   <v type="int" >        4       21       21       25       26 </v>
   <v type="int" >        4       21       21       22       26 </v>
   <v type="int" >        4       22       24       25       26 </v>
   <v type="int" >        4       21       22       25       26 </v>
   <v type="int" >        4       21       21       22       25 </v>
   <v type="int" >        4       22       24       24       25 </v>
   <v type="int" >        4       20       22       24       25 </v>
   <v type="int" >        4       20       21       22       25 </v>
   <v type="int" >        4       19       23       24       24 </v>
   <v type="int" >        4       22       23       24       24 </v>
   <v type="int" >        8       19       23       23       24 </v>
   <v type="int" >        8       18       19       23       23 </v>
   <v type="int" >        4       18       18       19       23 </v>
   <v type="int" >        8       25       25       26       27 </v>
   <v type="int" >        4       24       25       25       26 </v>
   <v type="int" >        2       24       24       25       25 </v>
   <v type="int" >        4       25       25       27       27 </v>
   <v type="int" >        8       25       26       27       27 </v>
   <v type="int" >       16       25       26       26       27 </v>
   <v type="int" >        8       24       25       26       26 </v>
   <v type="int" >        4       22       24       24       26 </v>
   <v type="int" >        4       24       24       25       26 </v>
   <v type="int" >        4       19       20       22       24 </v>
   <v type="int" >        4       19       22       24       24 </v>
   <v type="int" >        4       19       22       23       24 </v>
   <v type="int" >        4       21       25       25       26 </v>
   <v type="int" >        2       21       21       25       25 </v>
   <v type="int" >        4       20       21       21       25 </v>
  </varray>
  <i name="volumeweight">      0.00092593 </i>
 </kpoints>
 <parameters>
  <separator name="general" >
   <i type="string" name="SYSTEM">unknown system</i>
   <i type="logical" name="LCOMPAT"> F  </i>
  </separator>
  <separator name="electronic" >
   <i type="string" name="PREC">normal</i>
   <i name="ENMAX">    500.00000000</i>
   <i name="ENAUG">    605.39200000</i>
   <i name="EDIFF">      0.00001000</i>
   <i type="int" name="IALGO">    68</i>
   <i type="int" name="IWAVPR">    10</i>
   <i type="int" name="NBANDS">    30</i>
   <i name="NELECT">     48.00000000</i>
   <i type="int" name="TURBO">     0</i>
   <i type="int" name="IRESTART">     0</i>
   <i type="int" name="NREBOOT">     0</i>
   <i type="int" name="NMIN">     0</i>
   <i name="EREF">      0.00000000</i>
   <separator name="electronic smearing" >
    <i type="int" name="ISMEAR">    -5</i>
    <i name="SIGMA">      0.20000000</i>
    <i name="KSPACING">      0.50000000</i>
    <i type="logical" name="KGAMMA"> T  </i>
   </separator>
   <separator name="electronic projectors" >
    <i type="logical" name="LREAL"> T  </i>
    <v name="ROPT">     -0.00050000     -0.00050000</v>
    <i type="int" name="LMAXPAW">  -100</i>
    <i type="int" name="LMAXMIX">     2</i>
    <i type="logical" name="NLSPLINE"> F  </i>
   </separator>
   <separator name="electronic startup" >
    <i type="int" name="ISTART">     0</i>
    <i type="int" name="ICHARG">     2</i>
    <i type="int" name="INIWAV">     1</i>
   </separator>
   <separator name="electronic spin" >
    <i type="int" name="ISPIN">     1</i>
    <i type="logical" name="LNONCOLLINEAR"> F  </i>
    <v name="MAGMOM">      1.00000000      1.00000000      1.00000000      1.00000000      1.00000000      1.00000000      1.00000000      1.00000000      1.00000000</v>
    <i name="NUPDOWN">     -1.00000000</i>
    <i type="logical" name="LSORBIT"> F  </i>
    <v name="SAXIS">      0.00000000      0.00000000      1.00000000</v>
    <i type="logical" name="LSPIRAL"> F  </i>
    <v name="QSPIRAL">      0.00000000      0.00000000      0.00000000</v>
    <i type="logical" name="LZEROZ"> F  </i>
   </separator>
   <separator name="electronic exchange-correlation" >
    <i type="logical" name="LASPH"> F  </i>
    <i type="logical" name="LMETAGGA"> F  </i>
   </separator>
   <separator name="electronic convergence" >
    <i type="int" name="NELM">    60</i>
    <i type="int" name="NELMDL">    -5</i>
    <i type="int" name="NELMIN">     4</i>
    <i name="ENINI">    500.00000000</i>
    <separator name="electronic convergence detail" >
     <i type="logical" name="LDIAG"> T  </i>
     <i type="logical" name="LSUBROT"> F  </i>
     <i name="WEIMIN">      0.00000000</i>
     <i name="EBREAK">      0.00000008</i>
     <i name="DEPER">      0.30000000</i>
     <i type="int" name="NRMM">     4</i>
     <i name="TIME">      0.40000000</i>
    </separator>
   </separator>
   <separator name="electronic mixer" >
    <i name="AMIX">      0.40000000</i>
    <i name="BMIX">      1.00000000</i>
    <i name="AMIN">      0.10000000</i>
    <i name="AMIX_MAG">      1.60000000</i>
    <i name="BMIX_MAG">      1.00000000</i>
    <separator name="electronic mixer details" >
     <i type="int" name="IMIX">     4</i>
     <i type="logical" name="MIXFIRST"> F  </i>
     <i type="int" name="MAXMIX">   -45</i>
     <i name="WC">    100.00000000</i>
     <i type="int" name="INIMIX">     1</i>
     <i type="int" name="MIXPRE">     1</i>
     <i type="int" name="MREMOVE">     5</i>
    </separator>
   </separator>
   <separator name="electronic dipolcorrection" >
    <i type="logical" name="LDIPOL"> F  </i>
    <i type="logical" name="LMONO"> F  </i>
    <i type="int" name="IDIPOL">     0</i>
    <i name="EPSILON">      1.00000000</i>
    <v name="DIPOL">   -100.00000000   -100.00000000   -100.00000000</v>
    <i name="EFIELD">      0.00000000</i>
   </separator>
  </separator>
  <separator name="grids" >
   <i type="int" name="NGX">    28</i>
   <i type="int" name="NGY">    28</i>
   <i type="int" name="NGZ">    30</i>
   <i type="int" name="NGXF">    56</i>
   <i type="int" name="NGYF">    56</i>
   <i type="int" name="NGZF">    60</i>
   <i type="logical" name="ADDGRID"> F  </i>
  </separator>
  <separator name="ionic" >
   <i type="int" name="NSW">     0</i>
   <i type="int" name="IBRION">    -1</i>
   <i type="int" name="MDALGO">     0</i>
   <i type="int" name="ISIF">     2</i>
   <i name="PSTRESS">      0.00000000</i>
   <i name="EDIFFG">      0.00010000</i>
   <i type="int" name="NFREE">     0</i>
   <i name="POTIM">      0.50000000</i>
   <i name="SMASS">     -3.00000000</i>
   <i name="SCALEE">      1.00000000</i>
  </separator>
  <separator name="ionic md" >
   <i name="TEBEG">      0.00010000</i>
   <i name="TEEND">      0.00010000</i>
   <i type="int" name="NBLOCK">     1</i>
   <i type="int" name="KBLOCK">     1</i>
   <i type="int" name="NPACO">   256</i>
   <i name="APACO">     16.00000000</i>
  </separator>
  <separator name="symmetry" >
   <i type="int" name="ISYM">     2</i>
   <i name="SYMPREC">      0.00001000</i>
  </separator>
  <separator name="dos" >
   <i type="int" name="LORBIT">     0</i>
   <v name="RWIGS">     -1.00000000     -1.00000000</v>
   <i type="int" name="NEDOS">   301</i>
   <i name="EMIN">     10.00000000</i>
   <i name="EMAX">    -10.00000000</i>
   <i name="EFERMI">      0.00000000</i>
  </separator>
  <separator name="writing" >
   <i type="int" name="NWRITE">     2</i>
   <i type="logical" name="LWAVE"> F  </i>
   <i type="logical" name="LDOWNSAMPLE"> F  </i>
   <i type="logical" name="LCHARG"> T  </i>
   <i type="logical" name="LPARD"> F  </i>
   <i type="logical" name="LVTOT"> F  </i>
   <i type="logical" name="LVHAR"> F  </i>
   <i type="logical" name="LELF"> F  </i>
   <i type="logical" name="LOPTICS"> F  </i>
   <v name="STM">      0.00000000      0.00000000      0.00000000      0.00000000      0.00000000      0.00000000      0.00000000</v>
  </separator>
  <separator name="performance" >
   <i type="int" name="NPAR">     2</i>
   <i type="int" name="NSIM">     4</i>
   <i type="int" name="NBLK">    -1</i>
   <i type="logical" name="LPLANE"> T  </i>
   <i type="logical" name="LSCALAPACK"> T  </i>
   <i type="logical" name="LSCAAWARE"> F  </i>
   <i type="logical" name="LSCALU"> F  </i>
   <i type="logical" name="LASYNC"> F  </i>
   <i type="logical" name="LORBITALREAL"> F  </i>
  </separator>
  <separator name="miscellaneous" >
   <i type="int" name="IDIOT">     3</i>
   <i type="int" name="ISPECIAL">     0</i>
   <i type="logical" name="LMUSIC"> F  </i>
   <v name="POMASS">     28.08500000     16.00000000</v>
   <v name="DARWINR">      0.00000000      0.00000000</v>
   <v name="DARWINV">      1.00000000      1.00000000</v>
   <i type="logical" name="LCORR"> T  </i>
  </separator>
  <i type="logical" name="GGA_COMPAT"> T  </i>
  <i type="logical" name="LBERRY"> F  </i>
  <i type="int" name="ICORELEVEL">     0</i>
  <i type="logical" name="LDAU"> F  </i>
  <i type="int" name="I_CONSTRAINED_M">     0</i>
  <separator name="electronic exchange-correlation" >
   <i type="string" name="GGA">--</i>
   <i type="int" name="VOSKOWN">     0</i>
   <i type="logical" name="LHFCALC"> F  </i>
   <i type="string" name="PRECFOCK"></i>
   <i type="logical" name="LSYMGRAD"> F  </i>
   <i type="logical" name="LHFONE"> F  </i>
   <i type="logical" name="LRHFCALC"> F  </i>
   <i type="logical" name="LTHOMAS"> F  </i>
   <i type="logical" name="LMODELHF"> F  </i>
   <i name="ENCUT4O">     -1.00000000</i>
   <i type="int" name="EXXOEP">     0</i>
   <i type="int" name="FOURORBIT">     0</i>
   <i name="AEXX">      0.00000000</i>
   <i name="HFALPHA">      0.00000000</i>
   <i name="MCALPHA">      0.00000000</i>
   <i name="ALDAX">      1.00000000</i>
   <i name="AGGAX">      1.00000000</i>
   <i name="ALDAC">      1.00000000</i>
   <i name="AGGAC">      1.00000000</i>
   <i type="int" name="NKREDX">     1</i>
   <i type="int" name="NKREDY">     1</i>
   <i type="int" name="NKREDZ">     1</i>
   <i type="logical" name="SHIFTRED"> F  </i>
   <i type="logical" name="ODDONLY"> F  </i>
   <i type="logical" name="EVENONLY"> F  </i>
   <i type="int" name="LMAXFOCK">     0</i>
   <i type="int" name="NMAXFOCKAE">     0</i>
   <i type="logical" name="LFOCKAEDFT"> F  </i>
   <i name="HFSCREEN">      0.00000000</i>
   <i name="HFSCREENC">      0.00000000</i>
   <i type="int" name="NBANDSGWLOW">     0</i>
  </separator>
  <separator name="vdW DFT" >
   <i type="logical" name="LUSE_VDW"> F  </i>
   <i name="Zab_VDW">     -0.84910000</i>
   <i name="PARAM1">      0.12340000</i>
   <i name="PARAM2">      1.00000000</i>
   <i name="PARAM3">      0.00000000</i>
  </separator>
  <separator name="model GW" >
   <i type="int" name="MODEL_GW">     0</i>
   <i name="MODEL_EPS0">      7.53504921</i>
   <i name="MODEL_ALPHA">      1.00000000</i>
  </separator>
  <separator name="linear response parameters" >
   <i type="logical" name="LEPSILON"> F  </i>
   <i type="logical" name="LRPA"> F  </i>
   <i type="logical" name="LNABLA"> F  </i>
   <i type="logical" name="LVEL"> F  </i>
   <i type="int" name="KINTER">     0</i>
   <i name="CSHIFT">      0.10000000</i>
   <i name="OMEGAMAX">     -1.00000000</i>
   <i name="DEG_THRESHOLD">      0.00200000</i>
   <i name="RTIME">     -0.10000000</i>
   <i name="WPLASMAI">      0.00000000</i>
   <v name="DFIELD">      0.00000000      0.00000000      0.00000000</v>
   <v name="WPLASMA">      0.00000000      0.00000000      0.00000000      0.00000000      0.00000000      0.00000000      0.00000000      0.00000000      0.00000000</v>
  </separator>
  <separator name="orbital magnetization" >
   <i type="logical" name="NUCIND"> F  </i>
   <v name="MAGPOS">      0.00000000      0.00000000      0.00000000</v>
   <i type="logical" name="LNICSALL"> T  </i>
   <i type="logical" name="ORBITALMAG"> F  </i>
   <i type="logical" name="LMAGBLOCH"> F  </i>
   <i type="logical" name="LCHIMAG"> F  </i>
   <i type="logical" name="LGAUGE"> T  </i>
   <i type="int" name="MAGATOM">     0</i>
   <v name="MAGDIPOL">      0.00000000      0.00000000      0.00000000</v>
   <v name="AVECCONST">      0.00000000      0.00000000      0.00000000</v>
  </separator>
  <separator name="response functions" >
   <i type="logical" name="LADDER"> F  </i>
   <i type="logical" name="LRPAFORCE"> F  </i>
   <i type="logical" name="LFXC"> F  </i>
   <i type="logical" name="LHARTREE"> T  </i>
   <i type="int" name="IBSE">     0</i>
   <v type="int" name="KPOINT">    -1     0     0     0</v>
   <i type="logical" name="LTCTE"> F  </i>
   <i type="logical" name="LTETE"> F  </i>
   <i type="logical" name="LTRIPLET"> F  </i>
   <i type="logical" name="LFXCEPS"> F  </i>
   <i type="logical" name="LFXHEG"> F  </i>
   <i type="int" name="NATURALO">     2</i>
   <i type="logical" name="L2ORDER"> F  </i>
   <i type="logical" name="LMP2LT"> F  </i>
   <i type="logical" name="LUSEW"> F  </i>
   <i name="ENCUTGW">     -2.00000000</i>
   <i name="ENCUTGWSOFT">     -2.00000000</i>
   <i name="ENCUTLF">     -1.00000000</i>
   <i type="int" name="LMAXMP2">    -1</i>
   <i name="SCISSOR">      0.00000000</i>
   <i type="int" name="NOMEGA">     0</i>
   <i type="int" name="NOMEGAR">     0</i>
   <i type="int" name="NBANDSGW">    -1</i>
   <i type="int" name="NBANDSO">    -1</i>
   <i type="int" name="NBANDSV">    -1</i>
   <i type="int" name="NELM">     1</i>
   <i type="int" name="NELMHF">     1</i>
   <i type="int" name="DIM">     3</i>
   <i type="int" name="ANTIRES">     0</i>
   <i name="OMEGAMAX">    -30.00000000</i>
   <i name="OMEGAMIN">    -30.00000000</i>
   <i name="OMEGATL">   -200.00000000</i>
   <i type="int" name="OMEGAGRID">   140</i>
   <i name="CSHIFT">     -0.10000000</i>
   <i type="logical" name="SELFENERGY"> F  </i>
   <i type="logical" name="LSPECTRAL"> F  </i>
   <i type="logical" name="LSPECTRALGW"> F  </i>
   <i type="logical" name="LSINGLES"> F  </i>
   <i type="logical" name="LFERMIGW"> F  </i>
   <i type="logical" name="ODDONLYGW"> F  </i>
   <i type="logical" name="EVENONLYGW"> F  </i>
   <i type="int" name="NKREDLFX">     1</i>
   <i type="int" name="NKREDLFY">     1</i>
   <i type="int" name="NKREDLFZ">     1</i>
   <i type="int" name="MAXMEM">  2800</i>
   <i type="int" name="TELESCOPE">     0</i>
   <i type="int" name="TAUPAR">     1</i>
   <i type="int" name="OMEGAPAR">    -1</i>
   <i name="LAMBDA">      1.00000000</i>
  </separator>
  <separator name="External order field" >
   <i name="OFIELD_KAPPA">      0.00000000</i>
   <v name="OFIELD_K">      0.00000000      0.00000000      0.00000000</v>
   <i name="OFIELD_Q6_NEAR">      0.00000000</i>
   <i name="OFIELD_Q6_FAR">      0.00000000</i>
   <i name="OFIELD_A">      0.00000000</i>
  </separator>
 </parameters>
 <atominfo>
  <atoms>       9 </atoms>
  <types>       2 </types>
  <array name="atoms" >
   <dimension dim="1">ion</dimension>
   <field type="string">element</field>
   <field type="int">atomtype</field>
   <set>
    <rc><c>Si</c><c>   1</c></rc>
    <rc><c>Si</c><c>   1</c></rc>
    <rc><c>Si</c><c>   1</c></rc>
    <rc><c>O </c><c>   2</c></rc>
    <rc><c>O </c><c>   2</c></rc>
    <rc><c>O </c><c>   2</c></rc>
    <rc><c>O </c><c>   2</c></rc>
    <rc><c>O </c><c>   2</c></rc>
    <rc><c>O </c><c>   2</c></rc>
   </set>
  </array>
  <array name="atomtypes" >
   <dimension dim="1">type</dimension>
   <field type="int">atomspertype</field>
   <field type="string">element</field>
   <field>mass</field>
   <field>valence</field>
   <field type="string">pseudopotential</field>
   <set>
    <rc><c>   3</c><c>Si</c><c>     28.08500000</c><c>      4.00000000</c><c> PAW_PBE Si 05Jan2001                   </c></rc>
    <rc><c>   6</c><c>O </c><c>     16.00000000</c><c>      6.00000000</c><c> PAW_PBE O 08Apr2002                    </c></rc>
   </set>
  </array>
 </atominfo>
 <structure name="initialpos" >
  <crystal>
   <varray name="basis" >
    <v>       4.91380000       0.00000000       0.00000000 </v>
    <v>      -2.45690000       4.25547563       0.00000000 </v>
    <v>       0.00000000       0.00000000       5.40520000 </v>
   </varray>
   <i name="volume">    113.02573808 </i>
   <varray name="rec_basis" >
    <v>       0.20350849       0.11749568       0.00000000 </v>
    <v>       0.00000000       0.23499136       0.00000000 </v>
    <v>       0.00000000       0.00000000       0.18500703 </v>
   </varray>
  </crystal>
  <varray name="positions" >
   <v>       0.46980000       0.00000000       0.66666667 </v>
   <v>       0.53020000       0.53020000       0.00000000 </v>
   <v>       0.00000000       0.46980000       0.33333333 </v>
   <v>       0.41450000       0.26620000       0.78560000 </v>
   <v>       0.58550000       0.85170000       0.88106667 </v>
   <v>       0.14830000       0.73380000       0.54773333 </v>
   <v>       0.26620000       0.41450000       0.21440000 </v>
   <v>       0.85170000       0.58550000       0.11893333 </v>
   <v>       0.73380000       0.14830000       0.45226667 </v>
  </varray>
 </structure>
 <calculation>
  <scstep>
   <time name="dav">    1.24    1.27</time>
   <time name="total">    1.29    1.35</time>
   <energy>
    <i name="alphaZ">     69.72428684 </i>
    <i name="ewald">  -1887.17190222 </i>
    <i name="hartreedc">   -937.16683993 </i>
    <i name="XCdc">    142.01202018 </i>
    <i name="pawpsdc">   1574.92322788 </i>
    <i name="pawaedc">  -1533.24131965 </i>
    <i name="eentropy">      0.00000000 </i>
    <i name="bandstr">    -37.25689565 </i>
    <i name="atom">   2903.33737771 </i>
    <i name="e_fr_energy">    295.15995517 </i>
    <i name="e_wo_entrp">    295.15995517 </i>
    <i name="e_0_energy">    295.15995517 </i>
   </energy>
  </scstep>
  <scstep>
   <time name="dav">    1.53    1.54</time>
   <time name="total">    1.54    1.55</time>
   <energy>
    <i name="e_fr_energy">    -61.42520011 </i>
    <i name="e_wo_entrp">    -61.42520011 </i>
    <i name="e_0_energy">    -61.42520011 </i>
   </energy>
  </scstep>
  <scstep>
   <time name="dav">    1.41    1.42</time>
   <time name="total">    1.42    1.43</time>
   <energy>
    <i name="e_fr_energy">    -80.38960429 </i>
    <i name="e_wo_entrp">    -80.38960429 </i>
    <i name="e_0_energy">    -80.38960429 </i>
   </energy>
  </scstep>
  <scstep>
   <time name="dav">    1.41    1.42</time>
   <time name="total">    1.41    1.42</time>
   <energy>
    <i name="e_fr_energy">    -80.61811398 </i>
    <i name="e_wo_entrp">    -80.61811398 </i>
    <i name="e_0_energy">    -80.61811398 </i>
   </energy>
  </scstep>
  <scstep>
   <time name="dav">    1.37    1.38</time>
   <time name="total">    1.45    1.47</time>
   <energy>
    <i name="e_fr_energy">    -80.62232402 </i>
    <i name="e_wo_entrp">    -80.62232402 </i>
    <i name="e_0_energy">    -80.62232402 </i>
   </energy>
  </scstep>
  <scstep>
   <time name="diag">    0.27    0.28</time>
   <time name="diis">    0.76    0.77</time>
   <time name="orth">    0.03    0.03</time>
   <time name="total">    1.19    1.20</time>
   <energy>
    <i name="e_fr_energy">    -70.99128635 </i>
    <i name="e_wo_entrp">    -70.99128635 </i>
    <i name="e_0_energy">    -70.99128635 </i>
   </energy>
  </scstep>
  <scstep>
   <time name="diag">    0.27    0.27</time>
   <time name="diis">    0.84    0.84</time>
   <time name="orth">    0.03    0.03</time>
   <time name="total">    1.26    1.27</time>
   <energy>
    <i name="e_fr_energy">    -70.97524649 </i>
    <i name="e_wo_entrp">    -70.97524649 </i>
    <i name="e_0_energy">    -70.97524649 </i>
   </energy>
  </scstep>
  <scstep>
   <time name="diag">    0.27    0.28</time>
   <time name="diis">    0.82    0.83</time>
   <time name="orth">    0.03    0.03</time>
   <time name="total">    1.24    1.25</time>
   <energy>
    <i name="e_fr_energy">    -70.99619146 </i>
    <i name="e_wo_entrp">    -70.99619146 </i>
    <i name="e_0_energy">    -70.99619146 </i>
   </energy>
  </scstep>
  <scstep>
   <time name="diag">    0.27    0.27</time>
   <time name="diis">    0.85    0.85</time>
   <time name="orth">    0.03    0.03</time>
   <time name="total">    1.27    1.28</time>
   <energy>
    <i name="e_fr_energy">    -70.98897496 </i>
    <i name="e_wo_entrp">    -70.98897496 </i>
    <i name="e_0_energy">    -70.98897496 </i>
   </energy>
  </scstep>
  <scstep>
   <time name="diag">    0.27    0.27</time>
   <time name="diis">    0.84    0.85</time>
   <time name="orth">    0.03    0.03</time>
   <time name="total">    1.26    1.27</time>
   <energy>
    <i name="e_fr_energy">    -70.99212644 </i>
    <i name="e_wo_entrp">    -70.99212644 </i>
    <i name="e_0_energy">    -70.99212644 </i>
   </energy>
  </scstep>
  <scstep>
   <time name="diag">    0.27    0.28</time>
   <time name="diis">    0.86    0.87</time>
   <time name="orth">    0.03    0.03</time>
   <time name="total">    1.29    1.30</time>
   <energy>
    <i name="e_fr_energy">    -70.99078675 </i>
    <i name="e_wo_entrp">    -70.99078675 </i>
    <i name="e_0_energy">    -70.99078675 </i>
   </energy>
  </scstep>
  <scstep>
   <time name="diag">    0.27    0.27</time>
   <time name="diis">    0.86    0.87</time>
   <time name="orth">    0.03    0.03</time>
   <time name="total">    1.28    1.29</time>
   <energy>
    <i name="e_fr_energy">    -70.99072737 </i>
    <i name="e_wo_entrp">    -70.99072737 </i>
    <i name="e_0_energy">    -70.99072737 </i>
   </energy>
  </scstep>
  <scstep>
   <time name="diag">    0.27    0.27</time>
   <time name="diis">    0.66    0.66</time>
   <time name="orth">    0.03    0.03</time>
   <time name="total">    1.00    1.01</time>
   <energy>
    <i name="alphaZ">     69.72428684 </i>
    <i name="ewald">  -1887.17190222 </i>
    <i name="hartreedc">  -1071.50741698 </i>
    <i name="XCdc">    151.12906779 </i>
    <i name="pawpsdc">   2053.83942734 </i>
    <i name="pawaedc">  -2014.60122995 </i>
    <i name="eentropy">      0.00000000 </i>
    <i name="bandstr">   -275.74034001 </i>
    <i name="atom">   2903.33737771 </i>
    <i name="e_fr_energy">    -70.99072947 </i>
    <i name="e_wo_entrp">    -70.99072947 </i>
    <i name="e_0_energy">    -70.99072947 </i>
   </energy>
  </scstep>
  <structure>
   <crystal>
    <varray name="basis" >
     <v>       4.91380000       0.00000000       0.00000000 </v>
     <v>      -2.45690000       4.25547563       0.00000000 </v>
     <v>       0.00000000       0.00000000       5.40520000 </v>
    </varray>
    <i name="volume">    113.02573808 </i>
    <varray name="rec_basis" >
     <v>       0.20350849       0.11749568       0.00000000 </v>
     <v>       0.00000000       0.23499136       0.00000000 </v>
     <v>       0.00000000       0.00000000       0.18500703 </v>
    </varray>
   </crystal>
   <varray name="positions" >
    <v>       0.46980000       0.00000000       0.66666667 </v>
    <v>       0.53020000       0.53020000       0.00000000 </v>
    <v>       0.00000000       0.46980000       0.33333333 </v>
    <v>       0.41450000       0.26620000       0.78560000 </v>
    <v>       0.58550000       0.85170000       0.88106667 </v>
    <v>       0.14830000       0.73380000       0.54773333 </v>
    <v>       0.26620000       0.41450000       0.21440000 </v>
    <v>       0.85170000       0.58550000       0.11893333 </v>
    <v>       0.73380000       0.14830000       0.45226667 </v>
   </varray>
  </structure>
  <varray name="forces" >
   <v>       0.39426565       0.00000000      -0.00000000 </v>
   <v>      -0.19713283      -0.34144407       0.00000000 </v>
   <v>      -0.19713283       0.34144407       0.00000000 </v>
   <v>      -0.49621015       0.27932592       0.06996812 </v>
   <v>       0.00620173       0.56939356      -0.06996812 </v>
   <v>      -0.49621015      -0.27932592      -0.06996812 </v>
   <v>       0.49000842      -0.29006763      -0.06996812 </v>
   <v>       0.49000842       0.29006763       0.06996812 </v>
   <v>       0.00620173      -0.56939356       0.06996812 </v>
  </varray>
  <varray name="stress" >
   <v>      85.07113163      -0.00000000      -0.00000000 </v>
   <v>      -0.00000000      85.07113163      -0.00000000 </v>
   <v>       0.00000000      -0.00000000      70.77164226 </v>
  </varray>
  <energy>
   <i name="e_fr_energy">    -70.99072947 </i>
   <i name="e_wo_entrp">    -70.99072947 </i>
   <i name="e_0_energy">      0.00000000 </i>
  </energy>
  <time name="totalsc">   18.89   19.58</time>
  <eigenvalues>
   <array>
    <dimension dim="1">band</dimension>
    <dimension dim="2">kpoint</dimension>
    <dimension dim="3">spin</dimension>
    <field>eigene</field>
    <field>occ</field>
    <set>
     <set comment="spin 1">
      <set comment="kpoint 1">
       <r>  -18.3707    1.0000 </r>
       <r>  -16.8331    1.0000 </r>
       <r>  -16.8331    1.0000 </r>
       <r>  -16.1985    1.0000 </r>
       <r>  -16.1501    1.0000 </r>
       <r>  -16.1501    1.0000 </r>
       <r>   -7.1718    1.0000 </r>
       <r>   -7.1718    1.0000 </r>
       <r>   -4.3313    1.0000 </r>
       <r>   -4.3250    1.0000 </r>
       <r>   -4.1730    1.0000 </r>
       <r>   -4.1730    1.0000 </r>
       <r>   -1.8553    1.0000 </r>
       <r>   -1.8553    1.0000 </r>
       <r>   -1.6180    1.0000 </r>
       <r>   -1.3579    1.0000 </r>
       <r>   -0.4064    1.0000 </r>
       <r>   -0.4064    1.0000 </r>
       <r>   -0.3884    1.0000 </r>
       <r>    0.1145    1.0000 </r>
       <r>    0.1145    1.0000 </r>
       <r>    0.4239    1.0000 </r>
       <r>    0.7643    1.0000 </r>
       <r>    0.7643    1.0000 </r>
       <r>    7.1217    0.0000 </r>
       <r>   10.3986    0.0000 </r>
       <r>   10.3986    0.0000 </r>
       <r>   10.9003    0.0000 </r>
       <r>   10.9003    0.0000 </r>
       <r>   12.1898    0.0000 </r>
      </set>
      <set comment="kpoint 2">
       <r>  -18.2890    1.0000 </r>
       <r>  -16.9274    1.0000 </r>
       <r>  -16.8213    1.0000 </r>
       <r>  -16.2181    1.0000 </r>
       <r>  -16.1673    1.0000 </r>
       <r>  -16.1567    1.0000 </r>
       <r>   -7.2093    1.0000 </r>
       <r>   -6.9902    1.0000 </r>
       <r>   -4.3712    1.0000 </r>
       <r>   -4.3452    1.0000 </r>
       <r>   -4.2737    1.0000 </r>
       <r>   -4.0123    1.0000 </r>
       <r>   -1.9806    1.0000 </r>
       <r>   -1.7955    1.0000 </r>
       <r>   -1.5878    1.0000 </r>
       <r>   -1.1913    1.0000 </r>
       <r>   -0.6801    1.0000 </r>
       <r>   -0.4452    1.0000 </r>
       <r>   -0.4000    1.0000 </r>
       <r>    0.0517    1.0000 </r>
       <r>    0.1045    1.0000 </r>
       <r>    0.3216    1.0000 </r>
       <r>    0.8277    1.0000 </r>
       <r>    0.8614    1.0000 </r>
       <r>    7.5439    0.0000 </r>
       <r>   10.3851    0.0000 </r>
       <r>   10.4452    0.0000 </r>
       <r>   10.9353    0.0000 </r>
       <r>   11.0439    0.0000 </r>
       <r>   12.3948    0.0000 </r>
      </set>
      <set comment="kpoint 3">
       <r>  -18.0699    1.0000 </r>
       <r>  -17.1867    1.0000 </r>
       <r>  -16.7957    1.0000 </r>
       <r>  -16.2410    1.0000 </r>
       <r>  -16.1957    1.0000 </r>
       <r>  -16.1758    1.0000 </r>
       <r>   -7.2810    1.0000 </r>
       <r>   -6.5706    1.0000 </r>
       <r>   -4.6271    1.0000 </r>
       <r>   -4.3789    1.0000 </r>
       <r>   -4.2970    1.0000 </r>
       <r>   -3.7098    1.0000 </r>
       <r>   -2.0631    1.0000 </r>
       <r>   -1.6872    1.0000 </r>
       <r>   -1.5625    1.0000 </r>
       <r>   -1.1952    1.0000 </r>
       <r>   -0.9961    1.0000 </r>
       <r>   -0.5766    1.0000 </r>
       <r>   -0.4850    1.0000 </r>
       <r>    0.0005    1.0000 </r>
       <r>    0.0698    1.0000 </r>
       <r>    0.2728    1.0000 </r>
       <r>    0.8557    1.0000 </r>
       <r>    1.0050    1.0000 </r>
       <r>    8.5430    0.0000 </r>
       <r>   10.4289    0.0000 </r>
       <r>   10.5556    0.0000 </r>
       <r>   11.0565    0.0000 </r>
       <r>   11.3944    0.0000 </r>
       <r>   11.7470    0.0000 </r>
      </set>
      <set comment="kpoint 4">
       <r>  -17.8805    1.0000 </r>
       <r>  -17.4016    1.0000 </r>
       <r>  -16.7821    1.0000 </r>
       <r>  -16.2470    1.0000 </r>
       <r>  -16.2086    1.0000 </r>
       <r>  -16.1874    1.0000 </r>
       <r>   -7.3154    1.0000 </r>
       <r>   -6.3083    1.0000 </r>
       <r>   -4.8153    1.0000 </r>
       <r>   -4.3562    1.0000 </r>
       <r>   -4.3252    1.0000 </r>
       <r>   -3.5439    1.0000 </r>
       <r>   -1.9910    1.0000 </r>
       <r>   -1.8244    1.0000 </r>
       <r>   -1.5937    1.0000 </r>
       <r>   -1.2124    1.0000 </r>
       <r>   -1.0042    1.0000 </r>
       <r>   -0.6598    1.0000 </r>
       <r>   -0.5923    1.0000 </r>
       <r>   -0.0025    1.0000 </r>
       <r>    0.0628    1.0000 </r>
       <r>    0.3033    1.0000 </r>
       <r>    0.8388    1.0000 </r>
       <r>    1.0627    1.0000 </r>
       <r>    9.3803    0.0000 </r>
       <r>   10.1179    0.0000 </r>
       <r>   10.8436    0.0000 </r>
       <r>   10.8443    0.0000 </r>
       <r>   11.6232    0.0000 </r>
       <r>   11.7000    0.0000 </r>
      </set>
      <set comment="kpoint 5">
       <r>  -18.1362    1.0000 </r>
       <r>  -17.1033    1.0000 </r>
       <r>  -16.8096    1.0000 </r>
       <r>  -16.2357    1.0000 </r>
       <r>  -16.1926    1.0000 </r>
       <r>  -16.1661    1.0000 </r>
       <r>   -7.2735    1.0000 </r>
       <r>   -6.6643    1.0000 </r>
       <r>   -4.6350    1.0000 </r>
       <r>   -4.3640    1.0000 </r>
       <r>   -4.2218    1.0000 </r>
       <r>   -3.7994    1.0000 </r>
       <r>   -2.0301    1.0000 </r>
       <r>   -1.7826    1.0000 </r>
       <r>   -1.4828    1.0000 </r>
       <r>   -1.0826    1.0000 </r>
       <r>   -1.0749    1.0000 </r>
       <r>   -0.5553    1.0000 </r>
       <r>   -0.3574    1.0000 </r>
       <r>   -0.1258    1.0000 </r>
       <r>    0.1873    1.0000 </r>
       <r>    0.2326    1.0000 </r>
       <r>    0.8466    1.0000 </r>
       <r>    0.9825    1.0000 </r>
       <r>    8.2517    0.0000 </r>
       <r>   10.4279    0.0000 </r>
       <r>   10.5694    0.0000 </r>
       <r>   11.0525    0.0000 </r>
       <r>   11.2225    0.0000 </r>
       <r>   11.9527    0.0000 </r>
      </set>
      <set comment="kpoint 6">
       <r>  -17.8872    1.0000 </r>
       <r>  -17.3821    1.0000 </r>
       <r>  -16.8020    1.0000 </r>
       <r>  -16.2442    1.0000 </r>
       <r>  -16.2068    1.0000 </r>
       <r>  -16.1845    1.0000 </r>
       <r>   -7.3387    1.0000 </r>
       <r>   -6.2082    1.0000 </r>
       <r>   -5.0345    1.0000 </r>
       <r>   -4.3161    1.0000 </r>
       <r>   -4.2242    1.0000 </r>
       <r>   -3.5517    1.0000 </r>
       <r>   -1.9793    1.0000 </r>
       <r>   -1.7803    1.0000 </r>
       <r>   -1.6538    1.0000 </r>
       <r>   -1.1596    1.0000 </r>
       <r>   -0.9972    1.0000 </r>
       <r>   -0.6908    1.0000 </r>
       <r>   -0.5025    1.0000 </r>
       <r>   -0.1841    1.0000 </r>
       <r>    0.0353    1.0000 </r>
       <r>    0.4277    1.0000 </r>
       <r>    0.8051    1.0000 </r>
       <r>    1.0741    1.0000 </r>
       <r>    9.2683    0.0000 </r>
       <r>   10.3675    0.0000 </r>
       <r>   10.6840    0.0000 </r>
       <r>   11.0872    0.0000 </r>
       <r>   11.4958    0.0000 </r>
       <r>   11.7042    0.0000 </r>
      </set>
      <set comment="kpoint 7">
       <r>  -17.6351    1.0000 </r>
       <r>  -17.6351    1.0000 </r>
       <r>  -16.8162    1.0000 </r>
       <r>  -16.2432    1.0000 </r>
       <r>  -16.1990    1.0000 </r>
       <r>  -16.1990    1.0000 </r>
       <r>   -7.3764    1.0000 </r>
       <r>   -5.6375    1.0000 </r>
       <r>   -5.6375    1.0000 </r>
       <r>   -4.2334    1.0000 </r>
       <r>   -4.2334    1.0000 </r>
       <r>   -3.4573    1.0000 </r>
       <r>   -1.8496    1.0000 </r>
       <r>   -1.8496    1.0000 </r>
       <r>   -1.7990    1.0000 </r>
       <r>   -0.9724    1.0000 </r>
       <r>   -0.9724    1.0000 </r>
       <r>   -0.8164    1.0000 </r>
       <r>   -0.6198    1.0000 </r>
       <r>   -0.1416    1.0000 </r>
       <r>   -0.1416    1.0000 </r>
       <r>    0.6635    1.0000 </r>
       <r>    0.6635    1.0000 </r>
       <r>    1.1053    1.0000 </r>
       <r>   10.0519    0.0000 </r>
       <r>   10.0519    0.0000 </r>
       <r>   10.5400    0.0000 </r>
       <r>   11.4767    0.0000 </r>
       <r>   11.6186    0.0000 </r>
       <r>   11.8288    0.0000 </r>
      </set>
      <set comment="kpoint 8">
       <r>  -18.2921    1.0000 </r>
       <r>  -17.2824    1.0000 </r>
       <r>  -16.4486    1.0000 </r>
       <r>  -16.1961    1.0000 </r>
       <r>  -16.1659    1.0000 </r>
       <r>  -16.1352    1.0000 </r>
       <r>   -7.8449    1.0000 </r>
       <r>   -6.3444    1.0000 </r>
       <r>   -4.4909    1.0000 </r>
       <r>   -4.4145    1.0000 </r>
       <r>   -4.3655    1.0000 </r>
       <r>   -3.8675    1.0000 </r>
       <r>   -1.9394    1.0000 </r>
       <r>   -1.6607    1.0000 </r>
       <r>   -1.5598    1.0000 </r>
       <r>   -1.2278    1.0000 </r>
       <r>   -0.5997    1.0000 </r>
       <r>   -0.4786    1.0000 </r>
       <r>   -0.4186    1.0000 </r>
       <r>   -0.2789    1.0000 </r>
       <r>    0.0828    1.0000 </r>
       <r>    0.5244    1.0000 </r>
       <r>    0.8148    1.0000 </r>
       <r>    0.9744    1.0000 </r>
       <r>    7.5160    0.0000 </r>
       <r>   10.2548    0.0000 </r>
       <r>   10.4197    0.0000 </r>
       <r>   10.5223    0.0000 </r>
       <r>   11.2232    0.0000 </r>
       <r>   12.1674    0.0000 </r>
      </set>
      <set comment="kpoint 9">
       <r>  -18.2147    1.0000 </r>
       <r>  -17.2814    1.0000 </r>
       <r>  -16.5317    1.0000 </r>
       <r>  -16.2109    1.0000 </r>
       <r>  -16.1850    1.0000 </r>
       <r>  -16.1462    1.0000 </r>
       <r>   -7.6999    1.0000 </r>
       <r>   -6.3526    1.0000 </r>
       <r>   -4.6692    1.0000 </r>
       <r>   -4.3726    1.0000 </r>
       <r>   -4.1762    1.0000 </r>
       <r>   -3.9171    1.0000 </r>
       <r>   -2.0396    1.0000 </r>
       <r>   -1.6447    1.0000 </r>
       <r>   -1.5239    1.0000 </r>
       <r>   -1.1500    1.0000 </r>
       <r>   -0.8295    1.0000 </r>
       <r>   -0.4929    1.0000 </r>
       <r>   -0.3895    1.0000 </r>
       <r>   -0.2348    1.0000 </r>
       <r>    0.1656    1.0000 </r>
       <r>    0.4205    1.0000 </r>
       <r>    0.7562    1.0000 </r>
       <r>    1.0161    1.0000 </r>
       <r>    7.8920    0.0000 </r>
       <r>   10.2690    0.0000 </r>
       <r>   10.5115    0.0000 </r>
       <r>   10.6062    0.0000 </r>
       <r>   11.2989    0.0000 </r>
       <r>   11.9909    0.0000 </r>
      </set>
      <set comment="kpoint 10">
       <r>  -18.0130    1.0000 </r>
       <r>  -17.3217    1.0000 </r>
       <r>  -16.7180    1.0000 </r>
       <r>  -16.2384    1.0000 </r>
       <r>  -16.2113    1.0000 </r>
       <r>  -16.1661    1.0000 </r>
       <r>   -7.4067    1.0000 </r>
       <r>   -6.3244    1.0000 </r>
       <r>   -4.9043    1.0000 </r>
       <r>   -4.3312    1.0000 </r>
       <r>   -4.0951    1.0000 </r>
       <r>   -3.8208    1.0000 </r>
       <r>   -2.1348    1.0000 </r>
       <r>   -1.7073    1.0000 </r>
       <r>   -1.4702    1.0000 </r>
       <r>   -1.2071    1.0000 </r>
       <r>   -0.8913    1.0000 </r>
       <r>   -0.5979    1.0000 </r>
       <r>   -0.4871    1.0000 </r>
       <r>   -0.0498    1.0000 </r>
       <r>    0.1652    1.0000 </r>
       <r>    0.2849    1.0000 </r>
       <r>    0.7989    1.0000 </r>
       <r>    0.9714    1.0000 </r>
       <r>    8.8079    0.0000 </r>
       <r>   10.3210    0.0000 </r>
       <r>   10.5735    0.0000 </r>
       <r>   11.0329    0.0000 </r>
       <r>   11.4069    0.0000 </r>
       <r>   11.6567    0.0000 </r>
      </set>
      <set comment="kpoint 11">
       <r>  -17.8579    1.0000 </r>
       <r>  -17.3904    1.0000 </r>
       <r>  -16.8285    1.0000 </r>
       <r>  -16.2472    1.0000 </r>
       <r>  -16.2129    1.0000 </r>
       <r>  -16.1785    1.0000 </r>
       <r>   -7.2677    1.0000 </r>
       <r>   -6.2691    1.0000 </r>
       <r>   -5.0398    1.0000 </r>
       <r>   -4.3528    1.0000 </r>
       <r>   -4.1006    1.0000 </r>
       <r>   -3.6673    1.0000 </r>
       <r>   -2.0431    1.0000 </r>
       <r>   -1.9420    1.0000 </r>
       <r>   -1.4667    1.0000 </r>
       <r>   -1.2572    1.0000 </r>
       <r>   -0.8409    1.0000 </r>
       <r>   -0.7210    1.0000 </r>
       <r>   -0.4166    1.0000 </r>
       <r>   -0.0685    1.0000 </r>
       <r>    0.1444    1.0000 </r>
       <r>    0.3371    1.0000 </r>
       <r>    0.7259    1.0000 </r>
       <r>    1.0020    1.0000 </r>
       <r>    9.5737    0.0000 </r>
       <r>   10.1836    0.0000 </r>
       <r>   10.6870    0.0000 </r>
       <r>   11.1535    0.0000 </r>
       <r>   11.5849    0.0000 </r>
       <r>   12.0364    0.0000 </r>
      </set>
      <set comment="kpoint 12">
       <r>  -18.0166    1.0000 </r>
       <r>  -17.3016    1.0000 </r>
       <r>  -16.7515    1.0000 </r>
       <r>  -16.2306    1.0000 </r>
       <r>  -16.1903    1.0000 </r>
       <r>  -16.1775    1.0000 </r>
       <r>   -7.4103    1.0000 </r>
       <r>   -6.3258    1.0000 </r>
       <r>   -4.9059    1.0000 </r>
       <r>   -4.3705    1.0000 </r>
       <r>   -4.0720    1.0000 </r>
       <r>   -3.7714    1.0000 </r>
       <r>   -2.0704    1.0000 </r>
       <r>   -1.6988    1.0000 </r>
       <r>   -1.5233    1.0000 </r>
       <r>   -1.3858    1.0000 </r>
       <r>   -0.9209    1.0000 </r>
       <r>   -0.4962    1.0000 </r>
       <r>   -0.3429    1.0000 </r>
       <r>   -0.0857    1.0000 </r>
       <r>    0.0672    1.0000 </r>
       <r>    0.3988    1.0000 </r>
       <r>    0.6410    1.0000 </r>
       <r>    1.0649    1.0000 </r>
       <r>    8.7741    0.0000 </r>
       <r>   10.3811    0.0000 </r>
       <r>   10.7662    0.0000 </r>
       <r>   11.1748    0.0000 </r>
       <r>   11.3561    0.0000 </r>
       <r>   11.7561    0.0000 </r>
      </set>
      <set comment="kpoint 13">
       <r>  -18.2153    1.0000 </r>
       <r>  -17.2774    1.0000 </r>
       <r>  -16.5428    1.0000 </r>
       <r>  -16.2096    1.0000 </r>
       <r>  -16.1744    1.0000 </r>
       <r>  -16.1503    1.0000 </r>
       <r>   -7.7009    1.0000 </r>
       <r>   -6.3527    1.0000 </r>
       <r>   -4.6734    1.0000 </r>
       <r>   -4.3737    1.0000 </r>
       <r>   -4.1904    1.0000 </r>
       <r>   -3.8886    1.0000 </r>
       <r>   -2.0129    1.0000 </r>
       <r>   -1.6620    1.0000 </r>
       <r>   -1.5184    1.0000 </r>
       <r>   -1.2008    1.0000 </r>
       <r>   -0.8726    1.0000 </r>
       <r>   -0.4075    1.0000 </r>
       <r>   -0.3783    1.0000 </r>
       <r>   -0.2552    1.0000 </r>
       <r>    0.1958    1.0000 </r>
       <r>    0.3819    1.0000 </r>
       <r>    0.7307    1.0000 </r>
       <r>    1.0456    1.0000 </r>
       <r>    7.8822    0.0000 </r>
       <r>   10.3077    0.0000 </r>
       <r>   10.5366    0.0000 </r>
       <r>   10.6559    0.0000 </r>
       <r>   11.2317    0.0000 </r>
       <r>   11.9935    0.0000 </r>
      </set>
      <set comment="kpoint 14">
       <r>  -18.0739    1.0000 </r>
       <r>  -17.2943    1.0000 </r>
       <r>  -16.6849    1.0000 </r>
       <r>  -16.2268    1.0000 </r>
       <r>  -16.2014    1.0000 </r>
       <r>  -16.1629    1.0000 </r>
       <r>   -7.4831    1.0000 </r>
       <r>   -6.3264    1.0000 </r>
       <r>   -4.8830    1.0000 </r>
       <r>   -4.3374    1.0000 </r>
       <r>   -4.0681    1.0000 </r>
       <r>   -3.8565    1.0000 </r>
       <r>   -2.0916    1.0000 </r>
       <r>   -1.6451    1.0000 </r>
       <r>   -1.5265    1.0000 </r>
       <r>   -1.2543    1.0000 </r>
       <r>   -0.9389    1.0000 </r>
       <r>   -0.4894    1.0000 </r>
       <r>   -0.4080    1.0000 </r>
       <r>   -0.1271    1.0000 </r>
       <r>    0.1821    1.0000 </r>
       <r>    0.3128    1.0000 </r>
       <r>    0.7166    1.0000 </r>
       <r>    1.0338    1.0000 </r>
       <r>    8.5230    0.0000 </r>
       <r>   10.3274    0.0000 </r>
       <r>   10.7373    0.0000 </r>
       <r>   10.8871    0.0000 </r>
       <r>   11.3530    0.0000 </r>
       <r>   11.7188    0.0000 </r>
      </set>
      <set comment="kpoint 15">
       <r>  -17.8597    1.0000 </r>
       <r>  -17.3886    1.0000 </r>
       <r>  -16.8254    1.0000 </r>
       <r>  -16.2459    1.0000 </r>
       <r>  -16.2216    1.0000 </r>
       <r>  -16.1752    1.0000 </r>
       <r>   -7.2809    1.0000 </r>
       <r>   -6.1853    1.0000 </r>
       <r>   -5.1813    1.0000 </r>
       <r>   -4.3155    1.0000 </r>
       <r>   -4.0681    1.0000 </r>
       <r>   -3.6856    1.0000 </r>
       <r>   -2.0876    1.0000 </r>
       <r>   -1.8098    1.0000 </r>
       <r>   -1.5839    1.0000 </r>
       <r>   -1.1273    1.0000 </r>
       <r>   -0.8945    1.0000 </r>
       <r>   -0.7022    1.0000 </r>
       <r>   -0.4160    1.0000 </r>
       <r>   -0.1332    1.0000 </r>
       <r>    0.1268    1.0000 </r>
       <r>    0.3794    1.0000 </r>
       <r>    0.7433    1.0000 </r>
       <r>    0.9761    1.0000 </r>
       <r>    9.4574    0.0000 </r>
       <r>   10.4460    0.0000 </r>
       <r>   10.6058    0.0000 </r>
       <r>   11.2081    0.0000 </r>
       <r>   11.4105    0.0000 </r>
       <r>   11.6749    0.0000 </r>
      </set>
      <set comment="kpoint 16">
       <r>  -17.8624    1.0000 </r>
       <r>  -17.3793    1.0000 </r>
       <r>  -16.8371    1.0000 </r>
       <r>  -16.2410    1.0000 </r>
       <r>  -16.2202    1.0000 </r>
       <r>  -16.1762    1.0000 </r>
       <r>   -7.2821    1.0000 </r>
       <r>   -6.1864    1.0000 </r>
       <r>   -5.1810    1.0000 </r>
       <r>   -4.3249    1.0000 </r>
       <r>   -4.0619    1.0000 </r>
       <r>   -3.6707    1.0000 </r>
       <r>   -2.0517    1.0000 </r>
       <r>   -1.8365    1.0000 </r>
       <r>   -1.6022    1.0000 </r>
       <r>   -1.1810    1.0000 </r>
       <r>   -0.9067    1.0000 </r>
       <r>   -0.6680    1.0000 </r>
       <r>   -0.3184    1.0000 </r>
       <r>   -0.1813    1.0000 </r>
       <r>    0.0772    1.0000 </r>
       <r>    0.4609    1.0000 </r>
       <r>    0.6566    1.0000 </r>
       <r>    1.0123    1.0000 </r>
       <r>    9.4470    0.0000 </r>
       <r>   10.3550    0.0000 </r>
       <r>   10.9116    0.0000 </r>
       <r>   11.0660    0.0000 </r>
       <r>   11.4930    0.0000 </r>
       <r>   11.7628    0.0000 </r>
      </set>
      <set comment="kpoint 17">
       <r>  -17.7345    1.0000 </r>
       <r>  -17.4728    1.0000 </r>
       <r>  -16.8760    1.0000 </r>
       <r>  -16.2404    1.0000 </r>
       <r>  -16.2378    1.0000 </r>
       <r>  -16.1785    1.0000 </r>
       <r>   -7.2364    1.0000 </r>
       <r>   -5.9301    1.0000 </r>
       <r>   -5.5136    1.0000 </r>
       <r>   -4.2930    1.0000 </r>
       <r>   -4.0576    1.0000 </r>
       <r>   -3.6127    1.0000 </r>
       <r>   -2.0555    1.0000 </r>
       <r>   -1.7519    1.0000 </r>
       <r>   -1.7485    1.0000 </r>
       <r>   -0.9634    1.0000 </r>
       <r>   -0.9075    1.0000 </r>
       <r>   -0.8408    1.0000 </r>
       <r>   -0.3585    1.0000 </r>
       <r>   -0.2027    1.0000 </r>
       <r>    0.0315    1.0000 </r>
       <r>    0.5789    1.0000 </r>
       <r>    0.6245    1.0000 </r>
       <r>    0.9711    1.0000 </r>
       <r>   10.0561    0.0000 </r>
       <r>   10.2564    0.0000 </r>
       <r>   10.6658    0.0000 </r>
       <r>   11.3736    0.0000 </r>
       <r>   11.4375    0.0000 </r>
       <r>   11.5277    0.0000 </r>
      </set>
      <set comment="kpoint 18">
       <r>  -18.0646    1.0000 </r>
       <r>  -17.7136    1.0000 </r>
       <r>  -16.2213    1.0000 </r>
       <r>  -16.1893    1.0000 </r>
       <r>  -16.1792    1.0000 </r>
       <r>  -16.1255    1.0000 </r>
       <r>   -8.2253    1.0000 </r>
       <r>   -5.5259    1.0000 </r>
       <r>   -4.8761    1.0000 </r>
       <r>   -4.5296    1.0000 </r>
       <r>   -4.4974    1.0000 </r>
       <r>   -3.6277    1.0000 </r>
       <r>   -1.7815    1.0000 </r>
       <r>   -1.5509    1.0000 </r>
       <r>   -1.5081    1.0000 </r>
       <r>   -1.0181    1.0000 </r>
       <r>   -0.8409    1.0000 </r>
       <r>   -0.7423    1.0000 </r>
       <r>   -0.6313    1.0000 </r>
       <r>   -0.4548    1.0000 </r>
       <r>   -0.0872    1.0000 </r>
       <r>    0.7689    1.0000 </r>
       <r>    0.9846    1.0000 </r>
       <r>    0.9857    1.0000 </r>
       <r>    8.4975    0.0000 </r>
       <r>    9.6486    0.0000 </r>
       <r>   10.2000    0.0000 </r>
       <r>   10.5272    0.0000 </r>
       <r>   11.2520    0.0000 </r>
       <r>   11.6920    0.0000 </r>
      </set>
      <set comment="kpoint 19">
       <r>  -18.0027    1.0000 </r>
       <r>  -17.6721    1.0000 </r>
       <r>  -16.3427    1.0000 </r>
       <r>  -16.2105    1.0000 </r>
       <r>  -16.1871    1.0000 </r>
       <r>  -16.1400    1.0000 </r>
       <r>   -8.0255    1.0000 </r>
       <r>   -5.6305    1.0000 </r>
       <r>   -5.0445    1.0000 </r>
       <r>   -4.4292    1.0000 </r>
       <r>   -4.3316    1.0000 </r>
       <r>   -3.6846    1.0000 </r>
       <r>   -1.9216    1.0000 </r>
       <r>   -1.6396    1.0000 </r>
       <r>   -1.4903    1.0000 </r>
       <r>   -1.1164    1.0000 </r>
       <r>   -0.9393    1.0000 </r>
       <r>   -0.5662    1.0000 </r>
       <r>   -0.5192    1.0000 </r>
       <r>   -0.3175    1.0000 </r>
       <r>   -0.0141    1.0000 </r>
       <r>    0.6572    1.0000 </r>
       <r>    0.9101    1.0000 </r>
       <r>    0.9400    1.0000 </r>
       <r>    8.7760    0.0000 </r>
       <r>    9.7851    0.0000 </r>
       <r>   10.3722    0.0000 </r>
       <r>   10.5679    0.0000 </r>
       <r>   11.3118    0.0000 </r>
       <r>   11.6707    0.0000 </r>
      </set>
      <set comment="kpoint 20">
       <r>  -17.8744    1.0000 </r>
       <r>  -17.5359    1.0000 </r>
       <r>  -16.6555    1.0000 </r>
       <r>  -16.2512    1.0000 </r>
       <r>  -16.1938    1.0000 </r>
       <r>  -16.1626    1.0000 </r>
       <r>   -7.5393    1.0000 </r>
       <r>   -5.9301    1.0000 </r>
       <r>   -5.2278    1.0000 </r>
       <r>   -4.3099    1.0000 </r>
       <r>   -4.0561    1.0000 </r>
       <r>   -3.8202    1.0000 </r>
       <r>   -2.1017    1.0000 </r>
       <r>   -1.9186    1.0000 </r>
       <r>   -1.3460    1.0000 </r>
       <r>   -1.1805    1.0000 </r>
       <r>   -0.9397    1.0000 </r>
       <r>   -0.4808    1.0000 </r>
       <r>   -0.3479    1.0000 </r>
       <r>   -0.1384    1.0000 </r>
       <r>    0.1254    1.0000 </r>
       <r>    0.4612    1.0000 </r>
       <r>    0.6867    1.0000 </r>
       <r>    0.8849    1.0000 </r>
       <r>    9.5013    0.0000 </r>
       <r>   10.0825    0.0000 </r>
       <r>   10.6261    0.0000 </r>
       <r>   10.7999    0.0000 </r>
       <r>   11.5683    0.0000 </r>
       <r>   11.8673    0.0000 </r>
      </set>
      <set comment="kpoint 21">
       <r>  -17.8183    1.0000 </r>
       <r>  -17.3717    1.0000 </r>
       <r>  -16.9035    1.0000 </r>
       <r>  -16.2685    1.0000 </r>
       <r>  -16.1959    1.0000 </r>
       <r>  -16.1726    1.0000 </r>
       <r>   -7.1846    1.0000 </r>
       <r>   -6.2033    1.0000 </r>
       <r>   -5.2790    1.0000 </r>
       <r>   -4.2812    1.0000 </r>
       <r>   -3.9167    1.0000 </r>
       <r>   -3.8836    1.0000 </r>
       <r>   -2.1114    1.0000 </r>
       <r>   -2.0824    1.0000 </r>
       <r>   -1.3572    1.0000 </r>
       <r>   -1.1015    1.0000 </r>
       <r>   -0.9480    1.0000 </r>
       <r>   -0.5090    1.0000 </r>
       <r>   -0.2063    1.0000 </r>
       <r>   -0.0606    1.0000 </r>
       <r>    0.1331    1.0000 </r>
       <r>    0.4160    1.0000 </r>
       <r>    0.4726    1.0000 </r>
       <r>    0.9133    1.0000 </r>
       <r>    9.9991    0.0000 </r>
       <r>   10.3866    0.0000 </r>
       <r>   10.7499    0.0000 </r>
       <r>   11.0611    0.0000 </r>
       <r>   11.4757    0.0000 </r>
       <r>   11.7521    0.0000 </r>
      </set>
      <set comment="kpoint 22">
       <r>  -17.8801    1.0000 </r>
       <r>  -17.5236    1.0000 </r>
       <r>  -16.6731    1.0000 </r>
       <r>  -16.2441    1.0000 </r>
       <r>  -16.1854    1.0000 </r>
       <r>  -16.1668    1.0000 </r>
       <r>   -7.5412    1.0000 </r>
       <r>   -5.9347    1.0000 </r>
       <r>   -5.2219    1.0000 </r>
       <r>   -4.3308    1.0000 </r>
       <r>   -4.0568    1.0000 </r>
       <r>   -3.7812    1.0000 </r>
       <r>   -2.0787    1.0000 </r>
       <r>   -1.9418    1.0000 </r>
       <r>   -1.3158    1.0000 </r>
       <r>   -1.2517    1.0000 </r>
       <r>   -1.0006    1.0000 </r>
       <r>   -0.4073    1.0000 </r>
       <r>   -0.2966    1.0000 </r>
       <r>   -0.1070    1.0000 </r>
       <r>    0.1368    1.0000 </r>
       <r>    0.3312    1.0000 </r>
       <r>    0.6357    1.0000 </r>
       <r>    0.9842    1.0000 </r>
       <r>    9.3834    0.0000 </r>
       <r>   10.3582    0.0000 </r>
       <r>   10.5574    0.0000 </r>
       <r>   11.0715    0.0000 </r>
       <r>   11.2099    0.0000 </r>
       <r>   11.6671    0.0000 </r>
      </set>
      <set comment="kpoint 23">
       <r>  -18.0039    1.0000 </r>
       <r>  -17.6698    1.0000 </r>
       <r>  -16.3527    1.0000 </r>
       <r>  -16.2079    1.0000 </r>
       <r>  -16.1792    1.0000 </r>
       <r>  -16.1417    1.0000 </r>
       <r>   -8.0260    1.0000 </r>
       <r>   -5.6317    1.0000 </r>
       <r>   -5.0438    1.0000 </r>
       <r>   -4.4255    1.0000 </r>
       <r>   -4.3402    1.0000 </r>
       <r>   -3.6732    1.0000 </r>
       <r>   -1.9147    1.0000 </r>
       <r>   -1.6367    1.0000 </r>
       <r>   -1.4879    1.0000 </r>
       <r>   -1.1453    1.0000 </r>
       <r>   -0.9715    1.0000 </r>
       <r>   -0.5638    1.0000 </r>
       <r>   -0.4468    1.0000 </r>
       <r>   -0.3422    1.0000 </r>
       <r>   -0.0138    1.0000 </r>
       <r>    0.6554    1.0000 </r>
       <r>    0.8201    1.0000 </r>
       <r>    1.0256    1.0000 </r>
       <r>    8.7500    0.0000 </r>
       <r>    9.8403    0.0000 </r>
       <r>   10.3313    0.0000 </r>
       <r>   10.6863    0.0000 </r>
       <r>   11.2030    0.0000 </r>
       <r>   11.6554    0.0000 </r>
      </set>
      <set comment="kpoint 24">
       <r>  -17.9074    1.0000 </r>
       <r>  -17.5793    1.0000 </r>
       <r>  -16.5691    1.0000 </r>
       <r>  -16.2355    1.0000 </r>
       <r>  -16.1895    1.0000 </r>
       <r>  -16.1637    1.0000 </r>
       <r>   -7.6769    1.0000 </r>
       <r>   -5.8217    1.0000 </r>
       <r>   -5.2242    1.0000 </r>
       <r>   -4.3085    1.0000 </r>
       <r>   -4.1480    1.0000 </r>
       <r>   -3.7659    1.0000 </r>
       <r>   -2.0576    1.0000 </r>
       <r>   -1.8370    1.0000 </r>
       <r>   -1.3841    1.0000 </r>
       <r>   -1.2411    1.0000 </r>
       <r>   -0.9323    1.0000 </r>
       <r>   -0.4936    1.0000 </r>
       <r>   -0.3520    1.0000 </r>
       <r>   -0.1427    1.0000 </r>
       <r>    0.0916    1.0000 </r>
       <r>    0.4605    1.0000 </r>
       <r>    0.7468    1.0000 </r>
       <r>    0.9119    1.0000 </r>
       <r>    9.2325    0.0000 </r>
       <r>   10.0945    0.0000 </r>
       <r>   10.5307    0.0000 </r>
       <r>   10.9157    0.0000 </r>
       <r>   11.2969    0.0000 </r>
       <r>   11.6670    0.0000 </r>
      </set>
      <set comment="kpoint 25">
       <r>  -17.8119    1.0000 </r>
       <r>  -17.3970    1.0000 </r>
       <r>  -16.8723    1.0000 </r>
       <r>  -16.2662    1.0000 </r>
       <r>  -16.2045    1.0000 </r>
       <r>  -16.1799    1.0000 </r>
       <r>   -7.1783    1.0000 </r>
       <r>   -6.1578    1.0000 </r>
       <r>   -5.3686    1.0000 </r>
       <r>   -4.2276    1.0000 </r>
       <r>   -3.9611    1.0000 </r>
       <r>   -3.8796    1.0000 </r>
       <r>   -2.1497    1.0000 </r>
       <r>   -1.9525    1.0000 </r>
       <r>   -1.4576    1.0000 </r>
       <r>   -1.0914    1.0000 </r>
       <r>   -0.8760    1.0000 </r>
       <r>   -0.6336    1.0000 </r>
       <r>   -0.1502    1.0000 </r>
       <r>   -0.0312    1.0000 </r>
       <r>    0.1962    1.0000 </r>
       <r>    0.3723    1.0000 </r>
       <r>    0.5620    1.0000 </r>
       <r>    0.7913    1.0000 </r>
       <r>    9.9231    0.0000 </r>
       <r>   10.4302    0.0000 </r>
       <r>   10.7267    0.0000 </r>
       <r>   11.1338    0.0000 </r>
       <r>   11.4644    0.0000 </r>
       <r>   11.7220    0.0000 </r>
      </set>
      <set comment="kpoint 26">
       <r>  -17.8141    1.0000 </r>
       <r>  -17.3900    1.0000 </r>
       <r>  -16.8801    1.0000 </r>
       <r>  -16.2635    1.0000 </r>
       <r>  -16.2035    1.0000 </r>
       <r>  -16.1805    1.0000 </r>
       <r>   -7.1791    1.0000 </r>
       <r>   -6.1594    1.0000 </r>
       <r>   -5.3665    1.0000 </r>
       <r>   -4.2364    1.0000 </r>
       <r>   -3.9639    1.0000 </r>
       <r>   -3.8623    1.0000 </r>
       <r>   -2.1437    1.0000 </r>
       <r>   -1.9581    1.0000 </r>
       <r>   -1.4647    1.0000 </r>
       <r>   -1.0894    1.0000 </r>
       <r>   -0.9233    1.0000 </r>
       <r>   -0.5848    1.0000 </r>
       <r>   -0.1557    1.0000 </r>
       <r>    0.0275    1.0000 </r>
       <r>    0.1906    1.0000 </r>
       <r>    0.2999    1.0000 </r>
       <r>    0.5409    1.0000 </r>
       <r>    0.8351    1.0000 </r>
       <r>    9.8660    0.0000 </r>
       <r>   10.5309    0.0000 </r>
       <r>   10.7982    0.0000 </r>
       <r>   11.1248    0.0000 </r>
       <r>   11.3061    0.0000 </r>
       <r>   11.6837    0.0000 </r>
      </set>
      <set comment="kpoint 27">
       <r>  -17.7783    1.0000 </r>
       <r>  -17.2611    1.0000 </r>
       <r>  -17.0414    1.0000 </r>
       <r>  -16.2742    1.0000 </r>
       <r>  -16.2168    1.0000 </r>
       <r>  -16.1891    1.0000 </r>
       <r>   -6.8640    1.0000 </r>
       <r>   -6.3793    1.0000 </r>
       <r>   -5.4770    1.0000 </r>
       <r>   -4.1777    1.0000 </r>
       <r>   -3.9210    1.0000 </r>
       <r>   -3.9201    1.0000 </r>
       <r>   -2.1819    1.0000 </r>
       <r>   -1.7416    1.0000 </r>
       <r>   -1.7261    1.0000 </r>
       <r>   -0.8833    1.0000 </r>
       <r>   -0.8595    1.0000 </r>
       <r>   -0.8529    1.0000 </r>
       <r>    0.0194    1.0000 </r>
       <r>    0.0359    1.0000 </r>
       <r>    0.2015    1.0000 </r>
       <r>    0.4247    1.0000 </r>
       <r>    0.4463    1.0000 </r>
       <r>    0.6532    1.0000 </r>
       <r>   10.1484    0.0000 </r>
       <r>   10.7015    0.0000 </r>
       <r>   10.9256    0.0000 </r>
       <r>   11.2102    0.0000 </r>
       <r>   11.3152    0.0000 </r>
       <r>   11.3847    0.0000 </r>
      </set>
     </set>
    </set>
   </array>
  </eigenvalues>
  <separator name="orbital magnetization" >
   <v name="MAGDIPOLOUT">      0.00000000      0.00000000      0.00000000</v>
  </separator>
  <dos>
   <i name="efermi">      1.12598663 </i>
   <total>
    <array>
     <dimension dim="1">gridpoints</dimension>
     <dimension dim="2">spin</dimension>
     <field>energy</field>
     <field>total</field>
     <field>integrated</field>
     <set>
      <set comment="spin 1">
       <r>   -20.3707     0.0000     0.0000 </r>
       <r>   -20.2548     0.0000     0.0000 </r>
       <r>   -20.1389     0.0000     0.0000 </r>
       <r>   -20.0230     0.0000     0.0000 </r>
       <r>   -19.9071     0.0000     0.0000 </r>
       <r>   -19.7913     0.0000     0.0000 </r>
       <r>   -19.6754     0.0000     0.0000 </r>
       <r>   -19.5595     0.0000     0.0000 </r>
       <r>   -19.4436     0.0000     0.0000 </r>
       <r>   -19.3277     0.0000     0.0000 </r>
       <r>   -19.2118     0.0000     0.0000 </r>
       <r>   -19.0960     0.0000     0.0000 </r>
       <r>   -18.9801     0.0000     0.0000 </r>
       <r>   -18.8642     0.0000     0.0000 </r>
       <r>   -18.7483     0.0000     0.0000 </r>
       <r>   -18.6324     0.0000     0.0000 </r>
       <r>   -18.5165     0.0000     0.0000 </r>
       <r>   -18.4006     0.0000     0.0000 </r>
       <r>   -18.2848     0.9332     0.0275 </r>
       <r>   -18.1689     1.6525     0.1777 </r>
       <r>   -18.0530     2.8327     0.4269 </r>
       <r>   -17.9371     4.7573     0.8830 </r>
       <r>   -17.8212     8.0579     1.7138 </r>
       <r>   -17.7053     0.4771     1.9975 </r>
       <r>   -17.5894     1.5338     2.1326 </r>
       <r>   -17.4736     3.2902     2.3888 </r>
       <r>   -17.3577     7.2514     3.3149 </r>
       <r>   -17.2418     1.9834     3.7433 </r>
       <r>   -17.1259     0.8727     3.8986 </r>
       <r>   -17.0100     0.6066     3.9738 </r>
       <r>   -16.8941     2.9863     4.1050 </r>
       <r>   -16.7783     7.4461     5.0266 </r>
       <r>   -16.6624     2.6038     5.5061 </r>
       <r>   -16.5465     1.5157     5.7406 </r>
       <r>   -16.4306     0.9984     5.8863 </r>
       <r>   -16.3147     0.5611     5.9763 </r>
       <r>   -16.1988    56.7630     9.0842 </r>
       <r>   -16.0829     0.0000    12.0000 </r>
       <r>   -15.9671     0.0000    12.0000 </r>
       <r>   -15.8512     0.0000    12.0000 </r>
       <r>   -15.7353     0.0000    12.0000 </r>
       <r>   -15.6194     0.0000    12.0000 </r>
       <r>   -15.5035     0.0000    12.0000 </r>
       <r>   -15.3876     0.0000    12.0000 </r>
       <r>   -15.2717     0.0000    12.0000 </r>
       <r>   -15.1559     0.0000    12.0000 </r>
       <r>   -15.0400     0.0000    12.0000 </r>
       <r>   -14.9241     0.0000    12.0000 </r>
       <r>   -14.8082     0.0000    12.0000 </r>
       <r>   -14.6923     0.0000    12.0000 </r>
       <r>   -14.5764     0.0000    12.0000 </r>
       <r>   -14.4606     0.0000    12.0000 </r>
       <r>   -14.3447     0.0000    12.0000 </r>
       <r>   -14.2288     0.0000    12.0000 </r>
       <r>   -14.1129     0.0000    12.0000 </r>
       <r>   -13.9970     0.0000    12.0000 </r>
       <r>   -13.8811     0.0000    12.0000 </r>
       <r>   -13.7652     0.0000    12.0000 </r>
       <r>   -13.6494     0.0000    12.0000 </r>
       <r>   -13.5335     0.0000    12.0000 </r>
       <r>   -13.4176     0.0000    12.0000 </r>
       <r>   -13.3017     0.0000    12.0000 </r>
       <r>   -13.1858     0.0000    12.0000 </r>
       <r>   -13.0699     0.0000    12.0000 </r>
       <r>   -12.9540     0.0000    12.0000 </r>
       <r>   -12.8382     0.0000    12.0000 </r>
       <r>   -12.7223     0.0000    12.0000 </r>
       <r>   -12.6064     0.0000    12.0000 </r>
       <r>   -12.4905     0.0000    12.0000 </r>
       <r>   -12.3746     0.0000    12.0000 </r>
       <r>   -12.2587     0.0000    12.0000 </r>
       <r>   -12.1429     0.0000    12.0000 </r>
       <r>   -12.0270     0.0000    12.0000 </r>
       <r>   -11.9111     0.0000    12.0000 </r>
       <r>   -11.7952     0.0000    12.0000 </r>
       <r>   -11.6793     0.0000    12.0000 </r>
       <r>   -11.5634     0.0000    12.0000 </r>
       <r>   -11.4475     0.0000    12.0000 </r>
       <r>   -11.3317     0.0000    12.0000 </r>
       <r>   -11.2158     0.0000    12.0000 </r>
       <r>   -11.0999     0.0000    12.0000 </r>
       <r>   -10.9840     0.0000    12.0000 </r>
       <r>   -10.8681     0.0000    12.0000 </r>
       <r>   -10.7522     0.0000    12.0000 </r>
       <r>   -10.6363     0.0000    12.0000 </r>
       <r>   -10.5205     0.0000    12.0000 </r>
       <r>   -10.4046     0.0000    12.0000 </r>
       <r>   -10.2887     0.0000    12.0000 </r>
       <r>   -10.1728     0.0000    12.0000 </r>
       <r>   -10.0569     0.0000    12.0000 </r>
       <r>    -9.9410     0.0000    12.0000 </r>
       <r>    -9.8251     0.0000    12.0000 </r>
       <r>    -9.7093     0.0000    12.0000 </r>
       <r>    -9.5934     0.0000    12.0000 </r>
       <r>    -9.4775     0.0000    12.0000 </r>
       <r>    -9.3616     0.0000    12.0000 </r>
       <r>    -9.2457     0.0000    12.0000 </r>
       <r>    -9.1298     0.0000    12.0000 </r>
       <r>    -9.0140     0.0000    12.0000 </r>
       <r>    -8.8981     0.0000    12.0000 </r>
       <r>    -8.7822     0.0000    12.0000 </r>
       <r>    -8.6663     0.0000    12.0000 </r>
       <r>    -8.5504     0.0000    12.0000 </r>
       <r>    -8.4345     0.0000    12.0000 </r>
       <r>    -8.3186     0.0000    12.0000 </r>
       <r>    -8.2028     0.0401    12.0004 </r>
       <r>    -8.0869     0.3232    12.0203 </r>
       <r>    -7.9710     0.4701    12.0692 </r>
       <r>    -7.8551     0.6818    12.1357 </r>
       <r>    -7.7392     0.8835    12.2270 </r>
       <r>    -7.6233     1.2199    12.3461 </r>
       <r>    -7.5074     1.6943    12.5132 </r>
       <r>    -7.3916     3.1165    12.7699 </r>
       <r>    -7.2757     5.6260    13.5427 </r>
       <r>    -7.1598     0.9023    13.8914 </r>
       <r>    -7.0439     0.4754    13.9690 </r>
       <r>    -6.9280     0.2544    14.0098 </r>
       <r>    -6.8121     0.2603    14.0363 </r>
       <r>    -6.6963     0.4050    14.0745 </r>
       <r>    -6.5804     0.6271    14.1326 </r>
       <r>    -6.4645     1.0641    14.2284 </r>
       <r>    -6.3486     1.8213    14.3897 </r>
       <r>    -6.2327     5.1133    14.7572 </r>
       <r>    -6.1168     3.1495    15.3496 </r>
       <r>    -6.0009     1.7543    15.6270 </r>
       <r>    -5.8851     1.0603    15.7835 </r>
       <r>    -5.7692     0.7177    15.8853 </r>
       <r>    -5.6533     0.4744    15.9535 </r>
       <r>    -5.5374     0.1198    16.0012 </r>
       <r>    -5.4215     1.3144    16.0526 </r>
       <r>    -5.3056     3.2421    16.3182 </r>
       <r>    -5.1897     2.9166    16.7086 </r>
       <r>    -5.0739     2.9001    17.0441 </r>
       <r>    -4.9580     2.3832    17.3591 </r>
       <r>    -4.8421     1.6322    17.5873 </r>
       <r>    -4.7262     1.1944    17.7499 </r>
       <r>    -4.6103     0.8478    17.8682 </r>
       <r>    -4.4944     0.8509    17.9525 </r>
       <r>    -4.3786     5.0917    18.2127 </r>
       <r>    -4.2627     9.7258    19.9354 </r>
       <r>    -4.1468     5.8396    20.8259 </r>
       <r>    -4.0309     5.4890    21.5707 </r>
       <r>    -3.9150     1.7247    22.1019 </r>
       <r>    -3.7991     8.2236    22.8531 </r>
       <r>    -3.6832     4.2568    23.5867 </r>
       <r>    -3.5674     1.8317    23.9420 </r>
       <r>    -3.4515     0.0000    24.0000 </r>
       <r>    -3.3356     0.0000    24.0000 </r>
       <r>    -3.2197     0.0000    24.0000 </r>
       <r>    -3.1038     0.0000    24.0000 </r>
       <r>    -2.9879     0.0000    24.0000 </r>
       <r>    -2.8720     0.0000    24.0000 </r>
       <r>    -2.7562     0.0000    24.0000 </r>
       <r>    -2.6403     0.0000    24.0000 </r>
       <r>    -2.5244     0.0000    24.0000 </r>
       <r>    -2.4085     0.0000    24.0000 </r>
       <r>    -2.2926     0.0000    24.0000 </r>
       <r>    -2.1767     0.6167    24.0016 </r>
       <r>    -2.0609    14.9182    25.0012 </r>
       <r>    -1.9450     6.0569    26.0568 </r>
       <r>    -1.8291     6.7648    26.7094 </r>
       <r>    -1.7132     6.6186    27.6127 </r>
       <r>    -1.5973     5.8968    28.2941 </r>
       <r>    -1.4814     6.3753    29.3508 </r>
       <r>    -1.3655     2.7975    29.9494 </r>
       <r>    -1.2497     3.2826    30.1326 </r>
       <r>    -1.1338     8.9501    31.4405 </r>
       <r>    -1.0179     2.5702    31.9526 </r>
       <r>    -0.9020    19.1961    33.3870 </r>
       <r>    -0.7861     1.9536    33.9364 </r>
       <r>    -0.6702     6.4478    34.3972 </r>
       <r>    -0.5543     8.6007    35.1511 </r>
       <r>    -0.4385    10.5058    36.4063 </r>
       <r>    -0.3226     5.0268    37.4773 </r>
       <r>    -0.2067     4.7865    38.0318 </r>
       <r>    -0.0908    11.0179    39.2127 </r>
       <r>     0.0251     5.0300    40.1196 </r>
       <r>     0.1410    18.7172    41.2847 </r>
       <r>     0.2568     0.6380    42.0051 </r>
       <r>     0.3727    13.6477    42.8031 </r>
       <r>     0.4886     3.7354    43.7307 </r>
       <r>     0.6045     4.4573    44.2556 </r>
       <r>     0.7204     7.8519    44.9470 </r>
       <r>     0.8363     7.2220    46.0445 </r>
       <r>     0.9522     8.3029    46.7818 </r>
       <r>     1.0680     2.7798    47.9730 </r>
       <r>     1.1839     0.0000    48.0000 </r>
       <r>     1.2998     0.0000    48.0000 </r>
       <r>     1.4157     0.0000    48.0000 </r>
       <r>     1.5316     0.0000    48.0000 </r>
       <r>     1.6475     0.0000    48.0000 </r>
       <r>     1.7634     0.0000    48.0000 </r>
       <r>     1.8792     0.0000    48.0000 </r>
       <r>     1.9951     0.0000    48.0000 </r>
       <r>     2.1110     0.0000    48.0000 </r>
       <r>     2.2269     0.0000    48.0000 </r>
       <r>     2.3428     0.0000    48.0000 </r>
       <r>     2.4587     0.0000    48.0000 </r>
       <r>     2.5745     0.0000    48.0000 </r>
       <r>     2.6904     0.0000    48.0000 </r>
       <r>     2.8063     0.0000    48.0000 </r>
       <r>     2.9222     0.0000    48.0000 </r>
       <r>     3.0381     0.0000    48.0000 </r>
       <r>     3.1540     0.0000    48.0000 </r>
       <r>     3.2699     0.0000    48.0000 </r>
       <r>     3.3857     0.0000    48.0000 </r>
       <r>     3.5016     0.0000    48.0000 </r>
       <r>     3.6175     0.0000    48.0000 </r>
       <r>     3.7334     0.0000    48.0000 </r>
       <r>     3.8493     0.0000    48.0000 </r>
       <r>     3.9652     0.0000    48.0000 </r>
       <r>     4.0811     0.0000    48.0000 </r>
       <r>     4.1969     0.0000    48.0000 </r>
       <r>     4.3128     0.0000    48.0000 </r>
       <r>     4.4287     0.0000    48.0000 </r>
       <r>     4.5446     0.0000    48.0000 </r>
       <r>     4.6605     0.0000    48.0000 </r>
       <r>     4.7764     0.0000    48.0000 </r>
       <r>     4.8923     0.0000    48.0000 </r>
       <r>     5.0081     0.0000    48.0000 </r>
       <r>     5.1240     0.0000    48.0000 </r>
       <r>     5.2399     0.0000    48.0000 </r>
       <r>     5.3558     0.0000    48.0000 </r>
       <r>     5.4717     0.0000    48.0000 </r>
       <r>     5.5876     0.0000    48.0000 </r>
       <r>     5.7034     0.0000    48.0000 </r>
       <r>     5.8193     0.0000    48.0000 </r>
       <r>     5.9352     0.0000    48.0000 </r>
       <r>     6.0511     0.0000    48.0000 </r>
       <r>     6.1670     0.0000    48.0000 </r>
       <r>     6.2829     0.0000    48.0000 </r>
       <r>     6.3988     0.0000    48.0000 </r>
       <r>     6.5146     0.0000    48.0000 </r>
       <r>     6.6305     0.0000    48.0000 </r>
       <r>     6.7464     0.0000    48.0000 </r>
       <r>     6.8623     0.0000    48.0000 </r>
       <r>     6.9782     0.0000    48.0000 </r>
       <r>     7.0941     0.0000    48.0000 </r>
       <r>     7.2100     0.0078    48.0002 </r>
       <r>     7.3258     0.0418    48.0028 </r>
       <r>     7.4417     0.1028    48.0110 </r>
       <r>     7.5576     0.1936    48.0278 </r>
       <r>     7.6735     0.2441    48.0534 </r>
       <r>     7.7894     0.2764    48.0837 </r>
       <r>     7.9053     0.2966    48.1168 </r>
       <r>     8.0211     0.3425    48.1538 </r>
       <r>     8.1370     0.3910    48.1963 </r>
       <r>     8.2529     0.4421    48.2445 </r>
       <r>     8.3688     0.4957    48.2988 </r>
       <r>     8.4847     0.5514    48.3595 </r>
       <r>     8.6006     0.6980    48.4314 </r>
       <r>     8.7165     0.8517    48.5212 </r>
       <r>     8.8323     0.8288    48.6182 </r>
       <r>     8.9482     0.8904    48.7178 </r>
       <r>     9.0641     0.9540    48.8247 </r>
       <r>     9.1800     1.0197    48.9390 </r>
       <r>     9.2959     1.2701    49.0638 </r>
       <r>     9.4118     1.5238    49.2336 </r>
       <r>     9.5277     1.3026    49.4000 </r>
       <r>     9.6435     1.2283    49.5457 </r>
       <r>     9.7594     1.4696    49.7015 </r>
       <r>     9.8753     1.6724    49.8763 </r>
       <r>     9.9912     1.3886    50.0919 </r>
       <r>    10.1071     1.1110    50.2279 </r>
       <r>    10.2230     2.6796    50.4219 </r>
       <r>    10.3388     8.8565    50.9961 </r>
       <r>    10.4547     4.3066    52.0189 </r>
       <r>    10.5706     5.6269    52.5149 </r>
       <r>    10.6865     7.8129    53.3802 </r>
       <r>    10.8024     4.8813    54.1743 </r>
       <r>    10.9183     2.4267    54.5463 </r>
       <r>    11.0342     5.0619    54.9616 </r>
       <r>    11.1500     5.9517    55.7830 </r>
       <r>    11.2659     5.9233    56.2848 </r>
       <r>    11.3818     6.8270    57.0156 </r>
       <r>    11.4977     5.1051    57.8043 </r>
       <r>    11.6136     1.2192    58.0933 </r>
       <r>    11.7295    11.8190    58.9904 </r>
       <r>    11.8454     2.5633    59.6358 </r>
       <r>    11.9612     0.8809    59.8178 </r>
       <r>    12.0771     0.5619    59.8926 </r>
       <r>    12.1930     0.4149    59.9495 </r>
       <r>    12.3089     0.2393    59.9891 </r>
       <r>    12.4248     0.0000    60.0000 </r>
       <r>    12.5407     0.0000    60.0000 </r>
       <r>    12.6565     0.0000    60.0000 </r>
       <r>    12.7724     0.0000    60.0000 </r>
       <r>    12.8883     0.0000    60.0000 </r>
       <r>    13.0042     0.0000    60.0000 </r>
       <r>    13.1201     0.0000    60.0000 </r>
       <r>    13.2360     0.0000    60.0000 </r>
       <r>    13.3519     0.0000    60.0000 </r>
       <r>    13.4677     0.0000    60.0000 </r>
       <r>    13.5836     0.0000    60.0000 </r>
       <r>    13.6995     0.0000    60.0000 </r>
       <r>    13.8154     0.0000    60.0000 </r>
       <r>    13.9313     0.0000    60.0000 </r>
       <r>    14.0472     0.0000    60.0000 </r>
       <r>    14.1631     0.0000    60.0000 </r>
       <r>    14.2789     0.0000    60.0000 </r>
       <r>    14.3948     0.0000    60.0000 </r>
      </set>
     </set>
    </array>
   </total>
  </dos>
 </calculation>
 <structure name="finalpos" >
  <crystal>
   <varray name="basis" >
    <v>       4.91380000       0.00000000       0.00000000 </v>
    <v>      -2.45690000       4.25547563       0.00000000 </v>
    <v>       0.00000000       0.00000000       5.40520000 </v>
   </varray>
   <i name="volume">    113.02573808 </i>
   <varray name="rec_basis" >
    <v>       0.20350849       0.11749568       0.00000000 </v>
    <v>       0.00000000       0.23499136       0.00000000 </v>
    <v>       0.00000000       0.00000000       0.18500703 </v>
   </varray>
  </crystal>
  <varray name="positions" >
   <v>       0.46980000       0.00000000       0.66666667 </v>
   <v>       0.53020000       0.53020000       0.00000000 </v>
   <v>       0.00000000       0.46980000       0.33333333 </v>
   <v>       0.41450000       0.26620000       0.78560000 </v>
   <v>       0.58550000       0.85170000       0.88106667 </v>
   <v>       0.14830000       0.73380000       0.54773333 </v>
   <v>       0.26620000       0.41450000       0.21440000 </v>
   <v>       0.85170000       0.58550000       0.11893333 </v>
   <v>       0.73380000       0.14830000       0.45226667 </v>
  </varray>
 </structure>
</modeling>
