unknown system                          
   1.00000000000000     
     4.913800    0.000000    0.000000
    -2.456900    4.255476    0.000000
     0.000000    0.000000    5.405200
   Si   O 
     3     6
Direct
  0.469800  0.000000  0.666667
  0.530200  0.530200  0.000000
  0.000000  0.469800  0.333333
  0.414500  0.266200  0.785600
  0.585500  0.851700  0.881067
  0.148300  0.733800  0.547733
  0.266200  0.414500  0.214400
  0.851700  0.585500  0.118933
  0.733800  0.148300  0.452267
 
   48   48   56
  1.4532      1.3841      1.3909      1.4488      1.5371      1.6453      1.7708      1.9160      2.0847      2.2748    
  2.4710      2.6498      2.7965      2.9177      3.0390      3.1891      3.3884      3.6503      3.9996      4.4952    
  5.2445      6.3966      8.1141      10.537      13.755      17.798      22.629      28.112      33.942      39.570    
  44.211      47.010      47.347      45.106      40.743      35.087      29.009      23.168      17.945      13.516    
  9.9399      7.2024      5.2169      3.8429      2.9205      2.3060      1.8926      1.6178      1.3832      1.3085    
  1.3187      1.3898      1.5016      1.6461      1.8226      2.0309      2.2683      2.5253      2.7803      3.0074    
  3.1954      3.3546      3.5014      3.6426      3.7802      3.9264      4.1099      4.3735      4.7811      5.4284    
  6.4391      7.9403      10.030      12.749      16.071      19.882      23.974      28.016      31.556      34.067    
  35.090      34.399      32.106      28.618      24.469      20.151      16.028      12.341      9.2449      6.8118    
  5.0165      3.7518      2.8782      2.2722      1.8486      1.5594      1.3836      1.3130      1.3309      1.4167    
  1.5531      1.7325      1.9535      2.2136      2.5071      2.8238      3.1464      3.4529      3.7284      3.9703    
  4.1755      4.3299      4.4201      4.4579      4.4851      4.5534      4.7103      5.0082      5.5206      6.3415    
  7.5649      9.2563      11.426      14.010      16.857      19.741      22.370      24.420      25.585      25.664    
  24.626      22.624      19.938      16.894      13.794      10.888      8.3579      6.3057      4.7452      3.6147    
  2.8140      2.2453      1.8387      1.5564      1.4362      1.3833      1.4166      1.5205      1.6823      1.8955    
  2.1569      2.4625      2.8072      3.1845      3.5854      3.9962      4.3991      4.7692      5.0721      5.2688    
  5.3362      5.2878      5.1747      5.0610      4.9984      5.0241      5.1787      5.5211      6.1236      7.0506    
  8.3340      9.9555      11.835      13.830      15.742      17.345      18.423      18.820      18.469      17.405    
  15.748      13.688      11.459      9.2878      7.3466      5.7246      4.4374      3.4564      2.7329      2.2110    
  1.8399      1.5862      1.5272      1.5038      1.5604      1.6867      1.8752      2.1210      2.4204      2.7707    
  3.1714      3.6219      4.1182      4.6508      5.1989      5.7209      6.1545      6.4362      6.5310      6.4498    
  6.2419      5.9712      5.6948      5.4588      5.3059      5.2836      5.4427      5.8265      6.4606      7.3478    
  8.4615      9.7325      11.040      12.224      13.118      13.595      13.585      13.076      12.109      10.784    
  9.2587      7.7132      6.2935      5.0743      4.0672      3.2588      2.6334      2.1722      1.8493      1.6395    
  1.6476      1.6605      1.7466      1.9006      2.1193      2.3994      2.7365      3.1311      3.5912      4.1262    
  4.7371      5.4116      6.1200      6.8084      7.3995      7.8140      8.0026      7.9615      7.7234      7.3376    
  6.8601      6.3541      5.8887      5.5291      5.3236      5.2994      5.4685      5.8334      6.3836      7.0849    
  7.8712      8.6470      9.3014      9.7305      9.8591      9.6542      9.1266      8.3299      7.3550      6.3149    
  5.3120      4.4111      3.6376      2.9980      2.4946      2.1229      1.8687      1.7145      1.7905      1.8432    
  1.9656      2.1549      2.4109      2.7314      3.1106      3.5496      4.0659      4.6830      5.4121      6.2408    
  7.1313      8.0171      8.8085      9.4140      9.7674      9.8393      9.6313      9.1702      8.5102      7.7351    
  6.9470      6.2421      5.6866      5.3098      5.1163      5.1009      5.2494      5.5326      5.9069      6.3211    
  6.7158      7.0208      7.1652      7.1031      6.8298      6.3766      5.7947      5.1409      4.4667      3.8138    
  3.2182      2.7152      2.3307      2.0656      1.8989      1.8094      1.9473      2.0444      2.2136      2.4506    
  2.7546      3.1249      3.5545      4.0427      4.6124      5.3008      6.1328      7.1055      8.1861      9.3048    
  10.357      11.229      11.825      12.082      11.961      11.461      10.639      9.6057      8.4969      7.4402    
  6.5294      5.8118      5.2921      4.9551      4.7831      4.7523      4.8262      4.9633      5.1265      5.2763    
  5.3630      5.3403      5.1901      4.9269      4.5809      4.1807      3.7467      3.2964      2.8579      2.4766    
  2.1963      2.0277      1.9445      1.9184      2.1072      2.2568      2.4884      2.7917      3.1583      3.5885    
  4.0786      4.6260      5.2529      6.0057      6.9237      8.0181      9.2717      10.630      11.985      13.192    
  14.112      14.631      14.669      14.192      13.254      11.991      10.576      9.1644      7.8788      6.7965    
  5.9413      5.2961      4.8361      4.5416      4.3812      4.3094      4.2868      4.2884      4.2858      4.2415    
  4.1303      3.9534      3.7244      3.4539      3.1532      2.8416      2.5448      2.2930      2.1157      2.0249    
  2.0038      2.0303      2.2638      2.4784      2.7882      3.1776      3.6258      4.1300      4.6940      5.3161    
  6.0113      6.8284      7.8230      9.0225      10.424      11.995      13.648      15.221      16.522      17.381    
  17.669      17.317      16.356      14.930      13.243      11.479      9.7845      8.2781      7.0344      6.0632    
  5.3308      4.7979      4.4268      4.1712      3.9894      3.8587      3.7610      3.6647      3.5420      3.3884    
  3.2074      2.9920      2.7429      2.4926      2.2856      2.1424      2.0598      2.0324      2.0572      2.1314    
  2.4209      2.7155      3.1120      3.5990      4.1487      4.7500      5.4111      6.1341      6.9218      7.8128    
  8.8761      10.164      11.690      13.437      15.342      17.259      18.961      20.220      20.852      20.747    
  19.894      18.414      16.517      14.418      12.295      10.310      8.6069      7.2527      6.2234      5.4517    
  4.8766      4.4465      4.1154      3.8565      3.6569      3.4918      3.3279      3.1528      2.9715      2.7757    
  2.5510      2.3203      2.1398      2.0417      2.0108      2.0250      2.0882      2.2164      2.5865      2.9701    
  3.4515      4.0334      4.6992      5.4297      6.2254      7.0894      8.0134      9.0104      10.145      11.498    
  13.113      14.988      17.083      19.279      21.356      23.043      24.098      24.356      23.750      22.342    
  20.320      17.931      15.400      12.937      10.740      8.9384      7.5448      6.4900      5.6953      5.0947    
  4.6239      4.2367      3.9200      3.6649      3.4382      3.2099      2.9831      2.7680      2.5521      2.3316    
  2.1442      2.0338      2.0014      2.0260      2.1157      2.2992      2.7597      3.2227      3.7785      4.4449    
  5.2334      6.1259      7.1029      8.1575      9.2737      10.436      11.680      13.093      14.755      16.695    
  18.893      21.270      23.643      25.735      27.252      27.962      27.725      26.522      24.493      21.896    
  19.021      16.134      13.471      11.204      9.3940      7.9984      6.9401      6.1453      5.5316      5.0205    
  4.5776      4.2045      3.8852      3.5804      3.2761      2.9918      2.7360      2.4965      2.2842      2.1372    
  2.0744      2.0868      2.1847      2.4049      2.9278      3.4363      4.0494      4.7927      5.7062      6.7836    
  7.9836      9.2755      10.636      12.032      13.458      14.977      16.681      18.629      20.835      23.264    
  25.798      28.194      30.138      31.332      31.552      30.692      28.811      26.150      23.045      19.824    
  16.764      14.071      11.851      10.095      8.7374      7.7082      6.9264      6.2909      5.7252      5.2128    
  4.7581      4.3380      3.9246      3.5257      3.1650      2.8463      2.5712      2.3651      2.2537      2.2384    
  2.3257      2.5489      3.0810      3.5860      4.2323      5.0474      6.0845      7.3505      8.7917      10.351    
  11.993      13.679      15.372      17.085      18.883      20.838      22.987      25.345      27.868      30.394    
  32.633      34.252      34.954      34.542      32.984      30.459      27.305      23.896      20.550      17.509    
  14.927      12.841      11.200      9.9357      8.9725      8.2054      7.5222      6.8652      6.2353      5.6347    
  5.0468      4.4733      3.9440      3.4796      3.0830      2.7694      2.5686      2.4936      2.5430      2.7315    
  3.2296      3.6836      4.3304      5.2017      6.3468      7.7773      9.4402      11.266      13.209      15.229    
  17.262      19.267      21.256      23.275      25.369      27.580      29.940      32.387      34.708      36.584    
  37.690      37.763      36.672      34.492      31.517      28.134      24.687      21.443      18.600      16.258    
  14.407      12.975      11.868      10.979      10.181      9.3842      8.5612      7.7183      6.8616      6.0122    
  5.2175      4.5163      3.9159      3.4231      3.0686      2.8771      2.8425      2.9555      3.4043      3.7700    
  4.3776      5.2660      6.4747      8.0132      9.8392      11.892      14.130      16.509      18.942      21.328    
  23.614      25.796      27.898      29.963      32.067      34.214      36.282      38.068      39.320      39.782    
  39.252      37.678      35.215      32.166      28.878      25.676      22.786      20.361      18.440      16.956    
  15.793      14.827      13.933      13.006      11.992      10.880      9.6811      8.4386      7.2316      6.1383    
  5.1947      4.4124      3.8165      3.4325      3.2507      3.2419      3.6442      3.8886      4.4117      5.2565    
  6.4547      8.0174      9.9221      12.131      14.617      17.341      20.198      23.035      25.719      28.182    
  30.404      32.400      34.212      35.823      37.240      38.449      39.383      39.902      39.818      38.983    
  37.397      35.204      32.615      29.874      27.283      25.082      23.329      21.965      20.871      19.920    
  18.990      17.967      16.779      15.395      13.819      12.095      10.327      8.6479      7.1591      5.9082    
  4.9255      4.2331      3.8166      3.6288      3.9893      4.0718      4.4599      5.1918      6.2936      7.7862    
  9.6762      11.954      14.605      17.600      20.836      24.130      27.281      30.144      32.633      34.705    
  36.262      37.216      37.646      37.747      37.729      37.715      37.670      37.448      36.919      36.043    
  34.844      33.371      31.743      30.191      28.938      27.955      27.134      26.367      25.539      24.526    
  23.221      21.573      19.583      17.301      14.849      12.411      10.160      8.2077      6.6170      5.4274    
  4.6334      4.1745      4.4940      4.3500      4.5463      5.1007      6.0310      7.3685      9.1529      11.404    
  14.117      17.259      20.747      24.408      28.015      31.351      34.253      36.582      38.056      38.424    
  37.730      36.310      34.682      33.354      32.630      32.541      32.939      33.631      34.413      35.052    
  35.349      35.265      34.967      34.700      34.465      34.177      33.733      32.975      31.729      29.883    
  27.432      24.468      21.170      17.782      14.549      11.648      9.1911      7.2561      5.8699      4.9807    
  5.2522      4.7743      4.7082      5.0285      5.7325      6.8515      8.4482      10.572      13.223      16.365    
  19.934      23.799      27.753      31.543      34.933      37.687      39.332      39.388      37.727      34.686    
  31.006      27.617      25.314      24.527      25.298      27.407      30.453      33.864      37.004      39.397    
  40.931      41.862      42.593      43.210      43.608      43.565      42.773      40.976      38.106      34.308    
  29.884      25.217      20.674      16.528      12.934      9.9914      7.7556      6.2085      6.4047      5.4331    
  5.0055      5.0319      5.4695      6.3286      7.6706      9.5617      12.018      15.009      18.487      22.374    
  26.508      30.642      34.488      37.742      39.801      39.929      37.729      33.366      27.630      21.772    
  17.117      14.661      14.870      17.713      22.749      29.144      35.773      41.566      45.928      48.923    
  51.111      53.096      54.923      56.269      56.616      55.444      52.479      47.832      41.956      35.495    
  29.091      23.217      18.116      13.872      10.519      8.0545      8.1159      6.4491      5.5203      5.1711    
  5.3006      5.8725      6.9145      8.4878      10.629      13.330      16.568      20.308      24.447      28.762    
  32.944      36.654      39.266      39.842      37.675      32.624      25.322      17.133      9.8012      4.9165    
  3.5228      6.0085      12.139      21.036      31.214      40.958      48.985      54.943      59.364      63.176    
  66.976      70.470      72.887      73.309      71.041      65.944      58.519      49.739      40.714      32.344    
  25.113      19.133      14.350      10.703      10.530      7.9511      6.3490      5.5101      5.2710      5.5290    
  6.2479      7.4568      9.2072      11.523      14.405      17.855      21.825      26.138      30.487      34.521    
  37.701      39.001      37.439      32.506      24.504      14.672      4.9339     -2.6461     -6.4215     -5.4428    
 0.48431      10.720      23.706      37.250      49.317      58.891      66.238      72.433      78.555      84.788    
  90.212      93.447      93.171      88.673      80.210      68.964      56.624      44.795      34.509      26.093    
  19.430      14.299      13.739      10.035      7.5820      6.1190      5.4241      5.3265      5.7131      6.5542    
  7.8934      9.7831      12.248      15.307      18.951      23.067      27.391      31.583      35.236      37.402    
  36.914      32.908      25.262      14.866      3.5421     -6.4156     -12.863     -14.265     -9.8757     0.13251    
  14.479      30.845      46.597      59.922      70.540      79.467      88.100      97.239      106.24      113.37    
  116.60      114.36      106.21      93.182      77.402      61.347      46.965      35.173      25.971      18.956    
  17.778      12.741      9.2768      7.0594      5.8051      5.2893      5.3350      5.8341      6.7833      8.2484    
  10.282      12.904      16.116      19.866      23.982      28.181      32.140      35.165      36.038      33.635    
  27.396      17.712      6.0296     -5.4398     -14.290     -18.492     -16.723     -8.5447      5.3263      22.851    
  41.141      57.661      71.380      82.976      94.002      105.75      118.21      129.69      137.58      139.40    
  133.58      120.48      102.22      81.974      62.825      46.723      34.181      24.756      22.617      16.046    
  11.436      8.3575      6.4489      5.4433      5.1273      5.3153      5.9192      6.9856      8.5988      10.782    
  13.523      16.813      20.594      24.682      28.799      32.526      34.826      34.449      30.475      22.756    
  12.163     0.50057     -9.9085     -16.771     -18.247     -13.235     -1.7109      14.914      33.938      52.397    
  68.481      82.244      95.130      108.78      123.88      139.20      152.02      159.24      157.91      146.98    
  128.20      105.09      81.492      60.660      44.102      31.704      28.122      19.854      13.999      9.9831    
  7.3577      5.8064      5.0931      4.9823      5.2946      6.0148      7.2349      8.9974      11.280      14.099    
  17.496      21.406      25.605      29.798      33.361      35.108      33.906      29.136      21.034      10.746    
 0.13510     -8.5870     -13.269     -12.211     -4.5994      9.0190      26.582      45.165      62.351      77.396    
  91.303      105.84      122.23      140.03      156.80      169.38      173.95      167.74      151.05      127.29    
  100.93      76.004      55.327      39.601      33.973      23.962      16.831      11.849      8.4894      6.3714    
  5.2254      4.8008      4.8641      5.3130      6.1957      7.5715      9.4400      11.834      14.857      18.551    
  22.780      27.292      31.775      35.415      37.047      35.743      31.161      23.706      14.513      5.3334    
 -1.7215     -4.5913     -1.7701      7.1491      21.084      37.664      54.272      69.407      83.349      97.643    
  113.83      132.23      151.05      167.40      177.53      177.50      165.73      144.29      117.75      90.640    
  66.729      47.881      39.601      28.027      19.714      13.821      9.7594      7.0934      5.5050      4.7442    
  4.5723      4.8149      5.4373      6.4911      8.0151      10.060      12.749      16.207      20.406      25.167    
  30.252      35.305      39.417      41.532      40.884      37.214      30.870      22.882      14.923      9.0433    
  7.1899      10.615      19.325      31.898      46.055      59.874      72.835      85.891      100.56      117.70    
  136.44      154.27      167.98      173.63      168.24      151.96      128.25      101.70      76.473      55.514    
  44.213      31.571      22.356      15.718      11.049      7.8920      5.8939      4.7997      4.3872      4.4498    
  4.8775      5.6890      6.9508      8.7314      11.151      14.377      18.493      23.419      28.971      34.935    
  40.894      45.902      48.952      49.296      46.614      41.165      33.927      26.568      21.115      19.370    
  22.276      29.498      39.553      50.622      61.605      72.674      84.932      99.472      116.21      133.44    
  148.33      157.60      158.02      148.21      129.82      106.55      82.496      61.160      46.977      34.072    
  24.423      17.327      12.217      8.6652      6.3291      4.9447      4.2968      4.1804      4.4487      5.0798    
  6.1436      7.7285      9.9513      12.987      16.997      22.014      27.938      34.606      41.775      48.907    
  54.973      58.924      59.955      57.685      52.377      45.107      37.631      31.919      29.528      31.073    
  36.057      43.220      51.320      59.879      69.365      80.688      94.204      109.05      123.21      133.87    
  138.20      134.24      122.09      103.97      83.322      63.591      47.308      35.093      25.606      18.426    
  13.110      9.3080      6.7314      5.1271      4.2783      3.9926      4.1201      4.6076      5.5080      6.9294    
  9.0043      11.904      15.819      20.877      27.094      34.380      42.525      51.120      59.431      66.298    
  70.570      71.397      68.481      62.317      54.223      46.033      39.561      36.065      35.910      38.587    
  43.143      48.825      55.520      63.681      73.663      85.152      97.010      107.26      113.49      113.68    
  107.07      94.625      78.724      62.206      45.105      34.425      25.697      18.837      13.592      9.7261    
  7.0264      5.2816      4.2871      3.8629      3.8696      4.2388      5.0008      6.2710      8.2083      10.994    
  14.827      19.896      26.330      34.151      43.220      53.154      63.247      72.465      79.444      82.941    
  82.238      77.413      69.418      59.874      50.618      43.212      38.577      36.864      37.627      40.216    
  44.211      49.590      56.412      64.540      73.419      81.876      88.209      90.665      88.149      80.764    
  69.823      57.309      40.796      32.157      24.653      18.474      13.576      9.8484      7.1602      5.3604    
  4.2805      3.7583      3.6660      3.9356      4.5842      5.7194      7.5146      10.174      13.913      18.953    
  25.511      33.747      43.672      55.005      67.025      78.537      88.025      93.922      95.095      91.323    
  83.399      72.880      61.626      51.314      43.123      37.613      34.784      34.279      35.666      38.620    
  42.878      48.223      54.326      60.538      65.828      68.954      68.886      65.259      58.565      49.961    
  35.161      28.656      22.620      17.377      13.048      9.6412      7.1024      5.3401      4.2344      3.6549    
  3.4874      3.6684      4.2140      5.2266      6.8785      9.3873      12.992      17.944      24.515      32.995    
  43.613      56.313      70.470      84.735      97.166      105.70      108.77      105.85      97.663      85.914    
  72.695      59.885      48.814      40.205      34.278      30.917      29.820      30.564      32.717      35.915    
  39.830      44.051      47.977      50.833      51.852      50.548      46.933      41.528      29.051      24.450    
  19.888      15.700      12.079      9.1198      6.8440      5.2074      4.1336      3.5360      3.3241      3.4327    
  3.8734      4.7541      6.2514      8.5818      11.997      16.776      23.234      31.756      42.785      56.594    
  72.834      90.149      106.20      118.24      123.95      122.29      113.83      100.51      84.903      69.358    
  55.518      44.212      35.677      29.833      26.433      25.112      25.420      26.900      29.161      31.854    
  34.582      36.852      38.137      38.020      36.326      33.195      23.158      20.072      16.815      13.662    
  10.793      8.3444      6.3975      4.9544      3.9660      3.3832      3.1552      3.2219      3.5726      4.3088    
  5.6212      7.7312      10.888      15.390      21.587      29.920      40.985      55.396      73.240      93.409    
  113.38      129.75      139.30      140.11      132.23      117.64      99.410      80.670      63.685      49.593    
  38.632      30.585      25.123      21.906      20.539      20.554      21.503      23.024      24.798      26.466    
  27.649      28.021      27.384      25.706      17.907      15.941      13.729      11.482      9.3322      7.3978    
  5.7991      4.5885      3.7325      3.1915      2.9568      3.0045      3.3033      3.9113      5.0154      6.8580    
  9.6888      13.801      19.565      27.451      38.129      52.453      70.997      93.181      116.66      137.63    
  152.04      156.81      151.04      136.40      116.17      94.214      73.694      56.416      42.867      32.724    
  25.430      20.528      17.650      16.376      16.229      16.795      17.772      18.881      19.815      20.308    
  20.187      19.377      13.486      12.310      10.874      9.3448      7.8173      6.3651      5.1077      4.1415    
  3.4513      2.9801      2.7376      2.7606      3.0318      3.5497      4.4550      6.0046      8.4611      12.095    
  17.263      24.450      34.326      47.833      65.925      88.705      114.44      139.44      159.17      169.28    
  167.34      154.25      133.44      109.10      85.219      64.560      48.189      35.892      26.909      20.543    
  16.338      13.912      12.808      12.570      12.867      13.456      14.081      14.504      14.584      14.256    
  9.9310      9.2876      8.3997      7.3926      6.3560      5.3307      4.3987      3.6664      3.1466      2.7709    
  2.5342      2.5158      2.7474      3.1993      3.9400      5.2015      7.2593      10.364      14.835      21.135    
  29.887      41.973      58.508      80.212      106.27      133.63      157.85      173.83      177.47      168.00    
  148.36      123.25      97.064      73.448      54.287      39.782      29.171      21.530      16.199      12.754    
  10.788      9.8552      9.5819      9.7083      10.010      10.277      10.382      10.282      7.2004      6.8863    
  6.3730      5.7287      5.0500      4.3790      3.7467      3.2223      2.8431      2.5648      2.3618      2.3074    
  2.4787      2.8663      3.4793      4.4806      6.1341      8.6917      12.432      17.758      25.210      35.524    
  49.744      68.930      93.169      120.49      146.96      167.69      177.52      173.72      157.67      133.86    
  107.24      81.876      60.515      44.002      31.855      23.085      16.827      12.532      9.8157      8.2758    
  7.5149      7.2370      7.2346      7.3254      7.3775      7.3441      5.2108      5.0689      4.7990      4.4077    
  3.9805      3.5782      3.1985      2.8487      2.5669      2.3583      2.2032      2.1404      2.2560      2.5800    
  3.0965      3.8829      5.1542      7.1690      10.187      14.536      20.656      29.118      40.749      56.603    
  77.350      102.19      128.19      151.04      165.79      168.36      158.10      138.16      113.40      88.163    
  65.830      47.964      34.573      24.840      17.830      12.877      9.5635      7.5189      6.3447      5.7178    
  5.4390      5.3569      5.3310      5.2865      3.8362      3.7614      3.6342      3.4222      3.1743      2.9551    
  2.7579      2.5464      2.3363      2.1696      2.0568      2.0117      2.0961      2.3629      2.8030      3.4288    
  4.3798      5.8939      8.2235      11.642      16.496      23.216      32.384      44.812      61.319      81.948    
  105.09      127.30      144.30      152.01      148.25      134.20      113.58      90.617      68.990      50.876    
  36.853      26.463      18.894      13.457      9.6987      7.2608      5.7630      4.8658      4.3574      4.1082    
  3.9917      3.9097      2.9186      2.8592      2.8038      2.7139      2.5958      2.4914      2.4034      2.2925    
  2.1527      2.0302      1.9607      1.9507      2.0271      2.2388      2.6004      3.1050      3.8187      4.9184    
  6.6320      9.2024      12.912      18.090      25.123      34.532      46.966      62.825      81.523      100.96    
  117.73      128.20      129.77      122.04      107.03      88.154      68.957      51.928      38.154      27.621    
  19.785      14.048      9.9716      7.2288      5.4862      4.4053      3.7386      3.3484      3.1352      3.0077    
  2.3057      2.2474      2.2243      2.2083      2.1801      2.1488      2.1216      2.0800      2.0161      1.9623    
  1.9549      1.9960      2.0814      2.2400      2.5087      2.9008      3.4420      4.2304      5.4383      7.2791    
  9.9963      13.855      19.121      26.094      35.167      46.718      60.689      76.056      90.656      101.65    
  106.48      103.93      94.635      80.822      65.337      50.601      38.016      27.983      20.282      14.492    
  10.251      7.2913      5.3507      4.1316      3.3652      2.8812      2.5868      2.4121      1.8900      1.8313    
  1.8242      1.8474      1.8759      1.8987      1.9177      1.9328      1.9465      1.9778      2.0467      2.1452    
  2.2514      2.3730      2.5539      2.8343      3.2357      3.7985      4.6239      5.8778      7.7695      10.524    
  14.349      19.428      25.958      34.157      44.090      55.344      66.752      76.470      82.475      83.324    
  78.770      69.888      58.606      46.920      36.269      27.326      20.177      14.623      10.426      7.3847    
  5.3082      3.9675      3.1208      2.5790      2.2311      2.0152      1.6151      1.5530      1.5552      1.5991    
  1.6623      1.7306      1.8010      1.8780      1.9696      2.0845      2.2228      2.3671      2.4942      2.6046    
  2.7338      2.9273      3.2127      3.6072      4.1577      4.9696      6.2060      8.0591      10.712      14.311    
  18.962      24.747      31.679      39.574      47.863      55.511      61.179      63.637      62.266      57.346    
  49.944      41.461      33.114      25.654      19.377      14.304      10.349      7.3940      5.2989      3.8917    
  2.9809      2.3939      2.0093      1.7605      1.4642      1.4167      1.4229      1.4598      1.5123      1.5749    
  1.6474      1.7320      1.8339      1.9549      2.0844      2.2010      2.2874      2.3485      2.4122      2.5121    
  2.6690      2.8896      3.1840      3.5891      4.1789      5.0602      6.3553      8.1758      10.591      13.601    
  17.134      21.036      25.059      28.835      31.881      33.693      33.912      32.472      29.633      25.879    
  21.733      17.627      13.851      10.588      7.9260      5.8765      4.3777      3.3257      2.6075      2.1234    
  1.7983      1.5862      1.3788      1.3264      1.3357      1.3845      1.4580      1.5523      1.6692      1.8088    
  1.9699      2.1452      2.3165      2.4600      2.5660      2.6495      2.7357      2.8368      2.9509      3.0790    
  3.2391      3.4656      3.8053      4.3215      5.0983      6.2325      7.8066      9.8552      12.343      15.158    
  18.121      20.987      23.450      25.174      25.874      25.412      23.854      21.450      18.541      15.449    
  12.433      9.6895      7.3659      5.5386      4.1927      3.2382      2.5639      2.0823      1.7411      1.5122    
  1.3849      1.3378      1.3552      1.4181      1.5134      1.6381      1.7924      1.9738      2.1761      2.3907    
  2.6029      2.7939      2.9549      3.0944      3.2237      3.3358      3.4121      3.4514      3.4853      3.5606    
  3.7157      3.9813      4.4003      5.0377      5.9675      7.2461      8.8847      10.829      12.958      15.089    