unknown system                          
   1.00000000000000     
     4.913800    0.000000    0.000000
    -2.456900    4.255476    0.000000
     0.000000    0.000000    5.405200
   Si   O 
     3     6
Direct
  0.469800  0.000000  0.666667
  0.530200  0.530200  0.000000
  0.000000  0.469800  0.333333
  0.414500  0.266200  0.785600
  0.585500  0.851700  0.881067
  0.148300  0.733800  0.547733
  0.266200  0.414500  0.214400
  0.851700  0.585500  0.118933
  0.733800  0.148300  0.452267
 
   48   48   56
 0.14532373330E+01 0.13840839505E+01 0.13908924370E+01 0.14487735149E+01 0.15371175051E+01
 0.16453153892E+01 0.17708274563E+01 0.19160129590E+01 0.20847323022E+01 0.22748007687E+01
 0.24709852971E+01 0.26498492321E+01 0.27964789377E+01 0.29177008001E+01 0.30389592447E+01
 0.31891273927E+01 0.33883579921E+01 0.36503301085E+01 0.39996467622E+01 0.44951993694E+01
 0.52444790346E+01 0.63965977273E+01 0.81140781128E+01 0.10536772503E+02 0.13754873737E+02
 0.17798134828E+02 0.22628996988E+02 0.28111759139E+02 0.33941872768E+02 0.39570137126E+02
 0.44210733541E+02 0.47010056821E+02 0.47346872848E+02 0.45106015588E+02 0.40743176442E+02
 0.35086999726E+02 0.29008927028E+02 0.23168164561E+02 0.17945235006E+02 0.13515564770E+02
 0.99398520186E+01 0.72023983890E+01 0.52169055280E+01 0.38428501558E+01 0.29205451229E+01
 0.23060104981E+01 0.18926361409E+01 0.16177642664E+01 0.13831738832E+01 0.13085228951E+01
 0.13187328877E+01 0.13897608714E+01 0.15016202798E+01 0.16461363438E+01 0.18226079906E+01
 0.20308766744E+01 0.22683380186E+01 0.25253244868E+01 0.27802540270E+01 0.30073573994E+01
 0.31953978186E+01 0.33545744676E+01 0.35013532924E+01 0.36425864572E+01 0.37801664606E+01
 0.39264308337E+01 0.41098618359E+01 0.43734722251E+01 0.47811134719E+01 0.54284265259E+01
 0.64391487088E+01 0.79402727105E+01 0.10029503072E+02 0.12749340383E+02 0.16070857222E+02
 0.19882238216E+02 0.23973717044E+02 0.28016321026E+02 0.31555952243E+02 0.34067233734E+02
 0.35089779886E+02 0.34398801551E+02 0.32106382948E+02 0.28617892935E+02 0.24468786128E+02
 0.20151119456E+02 0.16027756412E+02 0.12340730493E+02 0.92449410467E+01 0.68118480263E+01
 0.50164603628E+01 0.37518044230E+01 0.28781534851E+01 0.22721555701E+01 0.18485927330E+01
 0.15594235538E+01 0.13836136009E+01 0.13129792814E+01 0.13308630823E+01 0.14167206003E+01
 0.15530660879E+01 0.17324583194E+01 0.19534836624E+01 0.22136054029E+01 0.25070567483E+01
 0.28237991064E+01 0.31463822391E+01 0.34528674144E+01 0.37284494076E+01 0.39703172109E+01
 0.41755287357E+01 0.43298827216E+01 0.44200764105E+01 0.44579407050E+01 0.44850883903E+01
 0.45533849240E+01 0.47103413569E+01 0.50082417225E+01 0.55206274593E+01 0.63415403032E+01
 0.75648884433E+01 0.92563450256E+01 0.11426440546E+02 0.14009857283E+02 0.16857279587E+02
 0.19741091916E+02 0.22370478468E+02 0.24419938684E+02 0.25585179457E+02 0.25664098798E+02
 0.24626077684E+02 0.22623796129E+02 0.19938201853E+02 0.16894172424E+02 0.13794428611E+02
 0.10888190162E+02 0.83578596050E+01 0.63056821127E+01 0.47452343478E+01 0.36147361052E+01
 0.28139712536E+01 0.22453092428E+01 0.18386896797E+01 0.15563511211E+01 0.14361693515E+01
 0.13832531122E+01 0.14165930942E+01 0.15205446813E+01 0.16822954470E+01 0.18954943484E+01
 0.21569005046E+01 0.24625156519E+01 0.28071523819E+01 0.31845093461E+01 0.35853832665E+01
 0.39962399370E+01 0.43990528315E+01 0.47691648184E+01 0.50720599027E+01 0.52688345515E+01
 0.53361914998E+01 0.52878101869E+01 0.51747092068E+01 0.50609827630E+01 0.49983921883E+01
 0.50240723069E+01 0.51786556053E+01 0.55211081337E+01 0.61236483953E+01 0.70505515520E+01
 0.83339937582E+01 0.99554939626E+01 0.11835215310E+02 0.13829925172E+02 0.15742189558E+02
 0.17345109126E+02 0.18423375175E+02 0.18820030369E+02 0.18469427432E+02 0.17404852283E+02
 0.15747544114E+02 0.13688285177E+02 0.11459112987E+02 0.92877646847E+01 0.73465642858E+01
 0.57246172120E+01 0.44374176119E+01 0.34564240190E+01 0.27329166988E+01 0.22110016046E+01
 0.18398640144E+01 0.15862396216E+01 0.15272122992E+01 0.15038256512E+01 0.15603699492E+01
 0.16867019125E+01 0.18751754478E+01 0.21210237632E+01 0.24204068932E+01 0.27707259222E+01
 0.31714291797E+01 0.36218572750E+01 0.41181575434E+01 0.46508458931E+01 0.51989473090E+01
 0.57209156064E+01 0.61545149211E+01 0.64362034300E+01 0.65309610843E+01 0.64497680087E+01
 0.62419357774E+01 0.59711626446E+01 0.56948057248E+01 0.54588269354E+01 0.53058573054E+01
 0.52835599600E+01 0.54427209905E+01 0.58265204774E+01 0.64605840883E+01 0.73478082905E+01
 0.84615247760E+01 0.97325496769E+01 0.11040095126E+02 0.12223535935E+02 0.13118109329E+02
 0.13595476482E+02 0.13585486441E+02 0.13075907593E+02 0.12108524990E+02 0.10783828718E+02
 0.92587216330E+01 0.77131893316E+01 0.62935483986E+01 0.50742623649E+01 0.40672278196E+01
 0.32587978117E+01 0.26333800943E+01 0.21722118553E+01 0.18493229543E+01 0.16395145377E+01
 0.16476153456E+01 0.16604964363E+01 0.17465913935E+01 0.19005754280E+01 0.21193127913E+01
 0.23993600743E+01 0.27364857847E+01 0.31310589607E+01 0.35911644189E+01 0.41261829517E+01
 0.47371098029E+01 0.54116145954E+01 0.61200398532E+01 0.68084111682E+01 0.73994693485E+01
 0.78140302476E+01 0.80025815848E+01 0.79614777323E+01 0.77233764667E+01 0.73376198522E+01
 0.68601268170E+01 0.63540633194E+01 0.58886825816E+01 0.55291020372E+01 0.53236070872E+01
 0.52994372253E+01 0.54685403755E+01 0.58334120932E+01 0.63836223183E+01 0.70849400896E+01
 0.78712358725E+01 0.86469780144E+01 0.93013899244E+01 0.97304842549E+01 0.98591376233E+01
 0.96541772210E+01 0.91266443228E+01 0.83298550927E+01 0.73550356296E+01 0.63149115459E+01
 0.53120414973E+01 0.44110838983E+01 0.36375867858E+01 0.29980459930E+01 0.24945556852E+01
 0.21228733782E+01 0.18687337960E+01 0.17144954968E+01 0.17905220164E+01 0.18432197400E+01
 0.19656101302E+01 0.21548518901E+01 0.24108567447E+01 0.27314312250E+01 0.31105785722E+01
 0.35495928327E+01 0.40658511225E+01 0.46830220199E+01 0.54120850799E+01 0.62408499372E+01
 0.71312916325E+01 0.80170755776E+01 0.88084631327E+01 0.94139897287E+01 0.97674369931E+01
 0.98393203042E+01 0.96313138693E+01 0.91701906506E+01 0.85102277837E+01 0.77351377494E+01
 0.69470422006E+01 0.62421085270E+01 0.56865718555E+01 0.53097524535E+01 0.51163062937E+01
 0.51008789643E+01 0.52493938424E+01 0.55326102289E+01 0.59069480684E+01 0.63210925877E+01
 0.67158348275E+01 0.70207680570E+01 0.71651990086E+01 0.71031217576E+01 0.68297906941E+01
 0.63765918245E+01 0.57947350927E+01 0.51409120412E+01 0.44667385769E+01 0.38138191454E+01
 0.32181904217E+01 0.27152223953E+01 0.23306892404E+01 0.20656058020E+01 0.18988828750E+01
 0.18093946350E+01 0.19473428443E+01 0.20443704961E+01 0.22136203766E+01 0.24506438277E+01
 0.27545874853E+01 0.31249162924E+01 0.35544995514E+01 0.40427030944E+01 0.46124217717E+01
 0.53008499857E+01 0.61327705616E+01 0.71055411034E+01 0.81860672300E+01 0.93048353837E+01
 0.10357255095E+02 0.11228613001E+02 0.11824893716E+02 0.12081680486E+02 0.11960669739E+02
 0.11461039693E+02 0.10639072380E+02 0.96056610545E+01 0.84969105080E+01 0.74401778132E+01
 0.65294355931E+01 0.58117970281E+01 0.52921058213E+01 0.49551383121E+01 0.47830586417E+01
 0.47522515427E+01 0.48262073013E+01 0.49633361292E+01 0.51265135052E+01 0.52763134939E+01
 0.53629745600E+01 0.53403488573E+01 0.51901403686E+01 0.49268787370E+01 0.45809369212E+01
 0.41807410893E+01 0.37466719082E+01 0.32963518529E+01 0.28578865708E+01 0.24765872624E+01
 0.21963165376E+01 0.20276776025E+01 0.19444723610E+01 0.19183772092E+01 0.21072353223E+01
 0.22567885083E+01 0.24883681887E+01 0.27916962039E+01 0.31583217365E+01 0.35885487993E+01
 0.40786285335E+01 0.46259844065E+01 0.52528906333E+01 0.60057160590E+01 0.69237418265E+01
 0.80181322161E+01 0.92716746104E+01 0.10629809607E+02 0.11985107561E+02 0.13192484186E+02
 0.14111632470E+02 0.14631048138E+02 0.14668972050E+02 0.14192477222E+02 0.13253914302E+02
 0.11990902505E+02 0.10575651272E+02 0.91644363813E+01 0.78788287414E+01 0.67965325375E+01
 0.59413059721E+01 0.52960682528E+01 0.48361480044E+01 0.45415677312E+01 0.43812070985E+01
 0.43093947918E+01 0.42868141625E+01 0.42884013336E+01 0.42858083896E+01 0.42415199088E+01
 0.41303257805E+01 0.39533933297E+01 0.37243596836E+01 0.34538800217E+01 0.31532398490E+01
 0.28416426735E+01 0.25448112698E+01 0.22929545204E+01 0.21157341025E+01 0.20248542089E+01
 0.20038077041E+01 0.20302957223E+01 0.22638011727E+01 0.24784413463E+01 0.27881558574E+01
 0.31776057360E+01 0.36258460975E+01 0.41300378846E+01 0.46939662767E+01 0.53160711341E+01
 0.60113158488E+01 0.68284179724E+01 0.78230028400E+01 0.90224906222E+01 0.10423985612E+02
 0.11995324747E+02 0.13647600827E+02 0.15220606788E+02 0.16522001633E+02 0.17380790732E+02
 0.17668642360E+02 0.17316593848E+02 0.16355534052E+02 0.14930406681E+02 0.13243263407E+02
 0.11478997577E+02 0.97844915343E+01 0.82781410559E+01 0.70344087550E+01 0.60632144688E+01
 0.53307605531E+01 0.47979133006E+01 0.44267985474E+01 0.41712327356E+01 0.39893695035E+01
 0.38587405200E+01 0.37610009254E+01 0.36646980649E+01 0.35419633205E+01 0.33883572254E+01
 0.32074361969E+01 0.29919704281E+01 0.27428619071E+01 0.24926018729E+01 0.22855736309E+01
 0.21424145804E+01 0.20598047975E+01 0.20323581885E+01 0.20572291976E+01 0.21313873436E+01
 0.24208955233E+01 0.27154852577E+01 0.31120123531E+01 0.35989603188E+01 0.41486879436E+01
 0.47500471016E+01 0.54111043953E+01 0.61340612197E+01 0.69218252808E+01 0.78127636002E+01
 0.88760514351E+01 0.10164172893E+02 0.11689985987E+02 0.13436878508E+02 0.15342481660E+02
 0.17258641206E+02 0.18961326546E+02 0.20219589242E+02 0.20851781050E+02 0.20746793122E+02
 0.19894470007E+02 0.18414301679E+02 0.16517198632E+02 0.14417946406E+02 0.12294811791E+02
 0.10310394050E+02 0.86068850830E+01 0.72527328515E+01 0.62234214737E+01 0.54516557344E+01
 0.48765691469E+01 0.44464543797E+01 0.41153574903E+01 0.38565122474E+01 0.36569244453E+01
 0.34917873679E+01 0.33278810222E+01 0.31527705366E+01 0.29715347783E+01 0.27756566325E+01
 0.25509956679E+01 0.23203033363E+01 0.21397515442E+01 0.20416757496E+01 0.20108322214E+01
 0.20249840239E+01 0.20882140519E+01 0.22164320654E+01 0.25865319493E+01 0.29700969990E+01
 0.34514874413E+01 0.40333593816E+01 0.46991782785E+01 0.54297085809E+01 0.62253623622E+01
 0.70894342063E+01 0.80133743835E+01 0.90104429579E+01 0.10145203565E+02 0.11498319103E+02
 0.13113076761E+02 0.14988437558E+02 0.17082999098E+02 0.19278862719E+02 0.21356070317E+02
 0.23042724804E+02 0.24098005337E+02 0.24356452317E+02 0.23750131937E+02 0.22341531510E+02
 0.20320425574E+02 0.17930616454E+02 0.15399817789E+02 0.12937468682E+02 0.10740262893E+02
 0.89383832533E+01 0.75447567366E+01 0.64899718177E+01 0.56953224388E+01 0.50947158008E+01
 0.46239462571E+01 0.42366773176E+01 0.39200284564E+01 0.36649019793E+01 0.34381865221E+01
 0.32098876541E+01 0.29831401595E+01 0.27679749812E+01 0.25521303815E+01 0.23316319085E+01
 0.21442303765E+01 0.20338411857E+01 0.20013629389E+01 0.20260428189E+01 0.21156807584E+01
 0.22992287208E+01 0.27596959344E+01 0.32227390090E+01 0.37784623399E+01 0.44448643387E+01
 0.52334190616E+01 0.61259114003E+01 0.71029056528E+01 0.81575251728E+01 0.92737381372E+01
 0.10436301279E+02 0.11679958825E+02 0.13093016743E+02 0.14755459008E+02 0.16695270041E+02
 0.18893196563E+02 0.21269867361E+02 0.23642922130E+02 0.25734537456E+02 0.27251897051E+02
 0.27962249409E+02 0.27724727445E+02 0.26522394928E+02 0.24493133019E+02 0.21895721509E+02
 0.19020689813E+02 0.16134380026E+02 0.13471185485E+02 0.11204121895E+02 0.93940482895E+01
 0.79983812458E+01 0.69400597854E+01 0.61452630058E+01 0.55316394243E+01 0.50205120139E+01
 0.45775815677E+01 0.42044979857E+01 0.38852388284E+01 0.35804386958E+01 0.32760528013E+01
 0.29918300210E+01 0.27359546331E+01 0.24964892574E+01 0.22841635956E+01 0.21372265873E+01
 0.20743778060E+01 0.20867939417E+01 0.21846859704E+01 0.24048598443E+01 0.29277564656E+01
 0.34362982237E+01 0.40494211722E+01 0.47927030854E+01 0.57061993335E+01 0.67835871773E+01
 0.79836490544E+01 0.92755075333E+01 0.10635703648E+02 0.12031743989E+02 0.13458412988E+02
 0.14976999393E+02 0.16680533001E+02 0.18629176611E+02 0.20834992872E+02 0.23264453890E+02
 0.25797734938E+02 0.28193891578E+02 0.30137848932E+02 0.31331514004E+02 0.31552213431E+02
 0.30692111967E+02 0.28811499438E+02 0.26149970775E+02 0.23044680314E+02 0.19824443495E+02
 0.16764207097E+02 0.14071121636E+02 0.11850537267E+02 0.10094765861E+02 0.87374131567E+01
 0.77081624471E+01 0.69263515526E+01 0.62908894900E+01 0.57251883523E+01 0.52128370992E+01
 0.47581220059E+01 0.43379709992E+01 0.39246047468E+01 0.35257424619E+01 0.31649789169E+01
 0.28463211403E+01 0.25712479334E+01 0.23651359914E+01 0.22536704193E+01 0.22383956136E+01
 0.23256524589E+01 0.25488750310E+01 0.30810344204E+01 0.35860133479E+01 0.42322745621E+01
 0.50474314843E+01 0.60845141403E+01 0.73504537320E+01 0.87917329414E+01 0.10350743816E+02
 0.11992524717E+02 0.13678781049E+02 0.15372247823E+02 0.17084738199E+02 0.18883337743E+02
 0.20837591012E+02 0.22987010577E+02 0.25344933984E+02 0.27868213729E+02 0.30393537369E+02
 0.32632877926E+02 0.34251707409E+02 0.34954122050E+02 0.34542416829E+02 0.32984154500E+02
 0.30458680772E+02 0.27305215010E+02 0.23896279944E+02 0.20549733728E+02 0.17509358331E+02
 0.14927335431E+02 0.12840531680E+02 0.11199989181E+02 0.99357201184E+01 0.89725278235E+01
 0.82054286779E+01 0.75221849737E+01 0.68651670203E+01 0.62353120853E+01 0.56347130908E+01
 0.50468031713E+01 0.44733347467E+01 0.39439682711E+01 0.34795932741E+01 0.30829920123E+01
 0.27693970856E+01 0.25685701786E+01 0.24936081899E+01 0.25429999205E+01 0.27315157555E+01
 0.32295842348E+01 0.36836402593E+01 0.43304294797E+01 0.52017128171E+01 0.63468066124E+01
 0.77773166384E+01 0.94401892418E+01 0.11265550745E+02 0.13209115141E+02 0.15228742405E+02
 0.17262359620E+02 0.19266809195E+02 0.21255650146E+02 0.23275012167E+02 0.25368598249E+02
 0.27580487517E+02 0.29939935985E+02 0.32386573517E+02 0.34708211860E+02 0.36583777518E+02
 0.37689536466E+02 0.37762922420E+02 0.36671566397E+02 0.34492216080E+02 0.31516981500E+02
 0.28134270797E+02 0.24686641046E+02 0.21442625586E+02 0.18599560258E+02 0.16257504096E+02
 0.14407090059E+02 0.12974574730E+02 0.11868392233E+02 0.10978703786E+02 0.10181057170E+02
 0.93841771535E+01 0.85611798863E+01 0.77183068233E+01 0.68616200256E+01 0.60122241137E+01
 0.52175148173E+01 0.45163378011E+01 0.39159330817E+01 0.34231452435E+01 0.30686104682E+01
 0.28770940071E+01 0.28425282403E+01 0.29554959347E+01 0.34043170845E+01 0.37699725026E+01
 0.43775671514E+01 0.52660003638E+01 0.64746743664E+01 0.80132324210E+01 0.98392249524E+01
 0.11891730755E+02 0.14129802745E+02 0.16508693056E+02 0.18941608441E+02 0.21328017018E+02
 0.23613513209E+02 0.25796276023E+02 0.27897601289E+02 0.29963446761E+02 0.32067218134E+02
 0.34213961574E+02 0.36282226146E+02 0.38068104008E+02 0.39320357940E+02 0.39782082855E+02
 0.39251568757E+02 0.37677632441E+02 0.35214758773E+02 0.32165656957E+02 0.28878371771E+02
 0.25676068386E+02 0.22786477045E+02 0.20360949880E+02 0.18439735283E+02 0.16955652905E+02
 0.15792720788E+02 0.14826646570E+02 0.13932612353E+02 0.13006176688E+02 0.11992199915E+02
 0.10879732850E+02 0.96810902612E+01 0.84386037037E+01 0.72315643357E+01 0.61382554073E+01
 0.51947340080E+01 0.44124478563E+01 0.38164980712E+01 0.34324630854E+01 0.32506638158E+01
 0.32418689776E+01 0.36441964728E+01 0.38886020423E+01 0.44117150183E+01 0.52565309951E+01
 0.64546805277E+01 0.80173981769E+01 0.99220674607E+01 0.12130656974E+02 0.14616810614E+02
 0.17340668589E+02 0.20198179411E+02 0.23034600101E+02 0.25718668198E+02 0.28182448359E+02
 0.30403660938E+02 0.32400391872E+02 0.34211572647E+02 0.35822892296E+02 0.37239827809E+02
 0.38449367609E+02 0.39383366335E+02 0.39902388892E+02 0.39817613010E+02 0.38983159961E+02
 0.37397195596E+02 0.35203856118E+02 0.32614666923E+02 0.29873713258E+02 0.27283354857E+02
 0.25082466850E+02 0.23328784654E+02 0.21964764621E+02 0.20871137701E+02 0.19920471590E+02
 0.18989698485E+02 0.17967425008E+02 0.16778997609E+02 0.15395040644E+02 0.13818958563E+02
 0.12094941333E+02 0.10326611786E+02 0.86478954653E+01 0.71590606993E+01 0.59082298330E+01
 0.49255217046E+01 0.42331432417E+01 0.38165742937E+01 0.36287678407E+01 0.39892501880E+01
 0.40717546803E+01 0.44599186745E+01 0.51917997654E+01 0.62936306346E+01 0.77861796649E+01
 0.96761687019E+01 0.11953563000E+02 0.14605388713E+02 0.17600259656E+02 0.20836267017E+02
 0.24129552511E+02 0.27280902621E+02 0.30144256525E+02 0.32633113400E+02 0.34704927378E+02
 0.36262483293E+02 0.37216226851E+02 0.37646279102E+02 0.37746918392E+02 0.37729119236E+02
 0.37714796632E+02 0.37669929365E+02 0.37448120211E+02 0.36918502501E+02 0.36042688798E+02
 0.34843691783E+02 0.33370763616E+02 0.31742704447E+02 0.30191434593E+02 0.28938307408E+02
 0.27954948514E+02 0.27133911672E+02 0.26366578353E+02 0.25539085633E+02 0.24525607369E+02
 0.23220879882E+02 0.21573475908E+02 0.19583338011E+02 0.17300900349E+02 0.14848972896E+02
 0.12410867468E+02 0.10160171891E+02 0.82076979644E+01 0.66169515999E+01 0.54274164663E+01
 0.46333990310E+01 0.41744780813E+01 0.44940434420E+01 0.43499812589E+01 0.45462646714E+01
 0.51006739116E+01 0.60309517870E+01 0.73684633663E+01 0.91529050597E+01 0.11404493338E+02
 0.14116790809E+02 0.17259164792E+02 0.20746786789E+02 0.24408200513E+02 0.28014832816E+02
 0.31351498483E+02 0.34252647580E+02 0.36582481072E+02 0.38055727834E+02 0.38423912286E+02
 0.37730194404E+02 0.36310386160E+02 0.34682101507E+02 0.33353964081E+02 0.32630407560E+02
 0.32541256737E+02 0.32938807291E+02 0.33630764494E+02 0.34412893779E+02 0.35051941856E+02
 0.35349019479E+02 0.35264703566E+02 0.34966621391E+02 0.34700130686E+02 0.34465010643E+02
 0.34176956311E+02 0.33732602608E+02 0.32975016668E+02 0.31729057766E+02 0.29883304127E+02
 0.27432302712E+02 0.24468264617E+02 0.21170109755E+02 0.17782162161E+02 0.14548580792E+02
 0.11647523746E+02 0.91911230481E+01 0.72561081164E+01 0.58698508124E+01 0.49807010533E+01
 0.52521758159E+01 0.47742851860E+01 0.47082061619E+01 0.50285161323E+01 0.57325322349E+01
 0.68515108072E+01 0.84482224193E+01 0.10571638474E+02 0.13222597239E+02 0.16365273065E+02
 0.19933654708E+02 0.23799189433E+02 0.27752696405E+02 0.31543398574E+02 0.34932547534E+02
 0.37686785659E+02 0.39332220152E+02 0.39387827610E+02 0.37727119697E+02 0.34685502939E+02
 0.31005946185E+02 0.27616778653E+02 0.25314409764E+02 0.24527445342E+02 0.25298418036E+02
 0.27407451526E+02 0.30452684628E+02 0.33864446375E+02 0.37004159953E+02 0.39396784625E+02
 0.40930768758E+02 0.41862303766E+02 0.42592748558E+02 0.43209701964E+02 0.43608278384E+02
 0.43565493673E+02 0.42772746972E+02 0.40975776159E+02 0.38106359127E+02 0.34308411621E+02
 0.29884239652E+02 0.25216625814E+02 0.20674430410E+02 0.16527591075E+02 0.12934290498E+02
 0.99914027607E+01 0.77555539945E+01 0.62085267545E+01 0.64047288430E+01 0.54330641339E+01
 0.50055056635E+01 0.50319484639E+01 0.54695296069E+01 0.63285603005E+01 0.76705758042E+01
 0.95616909994E+01 0.12018273227E+02 0.15009158057E+02 0.18487086074E+02 0.22373582062E+02
 0.26508373559E+02 0.30642256447E+02 0.34487616633E+02 0.37741925153E+02 0.39800541164E+02
 0.39929074757E+02 0.37729139846E+02 0.33365666951E+02 0.27630448989E+02 0.21772454060E+02
 0.17117484361E+02 0.14661460036E+02 0.14869652806E+02 0.17712900159E+02 0.22749498070E+02
 0.29144012391E+02 0.35773059776E+02 0.41566173798E+02 0.45927694307E+02 0.48923122195E+02
 0.51111262544E+02 0.53096380290E+02 0.54922899136E+02 0.56268962470E+02 0.56616221823E+02
 0.55443952174E+02 0.52479135308E+02 0.47832064234E+02 0.41956060831E+02 0.35494813967E+02
 0.29090835356E+02 0.23217039933E+02 0.18115614465E+02 0.13871935890E+02 0.10518803665E+02
 0.80545170670E+01 0.81159462721E+01 0.64490586375E+01 0.55203281525E+01 0.51710636195E+01
 0.53005700006E+01 0.58724875719E+01 0.69144919031E+01 0.84877537425E+01 0.10629253161E+02
 0.13330468522E+02 0.16567780035E+02 0.20307608284E+02 0.24446627685E+02 0.28762113108E+02
 0.32943620191E+02 0.36654320985E+02 0.39266179882E+02 0.39841590507E+02 0.37674675251E+02
 0.32623742328E+02 0.25321543598E+02 0.17133432761E+02 0.98012181634E+01 0.49165070318E+01
 0.35228381629E+01 0.60084849699E+01 0.12139335793E+02 0.21036445393E+02 0.31214364535E+02
 0.40957841247E+02 0.48985234319E+02 0.54943065976E+02 0.59364289793E+02 0.63175596287E+02
 0.66975679793E+02 0.70469576544E+02 0.72887480705E+02 0.73308900140E+02 0.71040946954E+02
 0.65943805989E+02 0.58519317410E+02 0.49739245086E+02 0.40714249856E+02 0.32344385813E+02
 0.25113373655E+02 0.19132619224E+02 0.14349942173E+02 0.10702985632E+02 0.10529954630E+02
 0.79511061630E+01 0.63489949105E+01 0.55100911859E+01 0.52710198634E+01 0.55290318997E+01
 0.62478723949E+01 0.74568132239E+01 0.92072194588E+01 0.11522756760E+02 0.14405171439E+02
 0.17855249433E+02 0.21825271079E+02 0.26138021697E+02 0.30486612665E+02 0.34521090238E+02
 0.37701340421E+02 0.39000761957E+02 0.37439388599E+02 0.32506329175E+02 0.24504462043E+02
 0.14671751314E+02 0.49338802636E+01 -.26461049886E+01 -.64214566438E+01 -.54428413461E+01
 0.48430960478E+00 0.10719749402E+02 0.23706290046E+02 0.37250091615E+02 0.49317328947E+02
 0.58891011183E+02 0.66237592412E+02 0.72433314672E+02 0.78554833447E+02 0.84787689189E+02
 0.90211550791E+02 0.93447299480E+02 0.93171120097E+02 0.88673089973E+02 0.80210293581E+02
 0.68963744853E+02 0.56623726040E+02 0.44795318094E+02 0.34508833385E+02 0.26093376567E+02
 0.19429972864E+02 0.14299288543E+02 0.13739399314E+02 0.10035378418E+02 0.75820023048E+01
 0.61189685074E+01 0.54240633017E+01 0.53264603695E+01 0.57130624430E+01 0.65542131471E+01
 0.78934030186E+01 0.97830673220E+01 0.12248325057E+02 0.15306500720E+02 0.18951049547E+02
 0.23067016668E+02 0.27390665188E+02 0.31583237868E+02 0.35235876978E+02 0.37402404549E+02
 0.36913662774E+02 0.32907843520E+02 0.25262158360E+02 0.14866158437E+02 0.35420838244E+01
 -.64155517061E+01 -.12863199540E+02 -.14264891152E+02 -.98756959818E+01 0.13251282576E+00
 0.14479034501E+02 0.30844531542E+02 0.46596618778E+02 0.59922066988E+02 0.70540368094E+02
 0.79466890945E+02 0.88099660590E+02 0.97239271808E+02 0.10623813486E+03 0.11336847971E+03
 0.11660042967E+03 0.11435574051E+03 0.10621168355E+03 0.93182027678E+02 0.77401823020E+02
 0.61347365159E+02 0.46965403036E+02 0.35172715921E+02 0.25970813605E+02 0.18955958327E+02
 0.17778486814E+02 0.12741203959E+02 0.92767842354E+01 0.70594437127E+01 0.58051349659E+01
 0.52893018802E+01 0.53350330704E+01 0.58340810472E+01 0.67833404775E+01 0.82483702436E+01
 0.10282222278E+02 0.12903671417E+02 0.16115613968E+02 0.19866362769E+02 0.23982026909E+02
 0.28180547510E+02 0.32139610220E+02 0.35165030956E+02 0.36038461183E+02 0.33634750468E+02
 0.27395616164E+02 0.17712487298E+02 0.60296317608E+01 -.54397863510E+01 -.14289618106E+02
 -.18491855842E+02 -.16722738676E+02 -.85447227891E+01 0.53262799809E+01 0.22851390203E+02
 0.41141290078E+02 0.57660540564E+02 0.71380415044E+02 0.82975636558E+02 0.94002326168E+02
 0.10574621549E+03 0.11821426471E+03 0.12968650556E+03 0.13758436442E+03 0.13939571017E+03
 0.13358330831E+03 0.12047630756E+03 0.10221829450E+03 0.81973739612E+02 0.62824557502E+02
 0.46722580374E+02 0.34180867339E+02 0.24755788739E+02 0.22617302925E+02 0.16045881374E+02
 0.11436495171E+02 0.83575095108E+01 0.64488650001E+01 0.54433378271E+01 0.51273229221E+01
 0.53152911344E+01 0.59192291824E+01 0.69855910390E+01 0.85987578731E+01 0.10782420200E+02
 0.13523168859E+02 0.16813383962E+02 0.20593991372E+02 0.24682055794E+02 0.28798775474E+02
 0.32525825875E+02 0.34826364403E+02 0.34449292240E+02 0.30475475923E+02 0.22756000301E+02
 0.12162778196E+02 0.50057177611E+00 -.99085038656E+01 -.16770618476E+02 -.18246708089E+02
 -.13234975196E+02 -.17109256298E+01 0.14914080012E+02 0.33937522953E+02 0.52397220162E+02
 0.68480779956E+02 0.82243548371E+02 0.95130200347E+02 0.10878203042E+03 0.12387916983E+03
 0.13919956956E+03 0.15202388058E+03 0.15923804378E+03 0.15790963484E+03 0.14697964756E+03
 0.12819921758E+03 0.10508672207E+03 0.81492224228E+02 0.60659993501E+02 0.44101941195E+02
 0.31703568034E+02 0.28121590181E+02 0.19853841780E+02 0.13999499684E+02 0.99831346623E+01
 0.73576842623E+01 0.58064423370E+01 0.50931396781E+01 0.49822896639E+01 0.52946001054E+01
 0.60148359628E+01 0.72349293285E+01 0.89974220366E+01 0.11280218970E+02 0.14099136760E+02
 0.17496443576E+02 0.21405608565E+02 0.25604820542E+02 0.29798157659E+02 0.33360945712E+02
 0.35108408935E+02 0.33905625243E+02 0.29136136950E+02 0.21033732987E+02 0.10746045878E+02
 0.13510403495E+00 -.85870076726E+01 -.13268607382E+02 -.12210630622E+02 -.45994429697E+01
 0.90190274351E+01 0.26581730502E+02 0.45164810301E+02 0.62351417626E+02 0.77396169748E+02
 0.91303005161E+02 0.10583998155E+03 0.12223243905E+03 0.14002673403E+03 0.15680131281E+03
 0.16938196748E+03 0.17394990125E+03 0.16773954343E+03 0.15104642123E+03 0.12728885462E+03
 0.10092682516E+03 0.76003910857E+02 0.55326577969E+02 0.39601492353E+02 0.33972965067E+02
 0.23962403872E+02 0.16831035017E+02 0.11849416506E+02 0.84894338095E+01 0.63713725547E+01
 0.52253955596E+01 0.48008390420E+01 0.48640760095E+01 0.53129989546E+01 0.61956927646E+01
 0.75714578053E+01 0.94400372908E+01 0.11833903716E+02 0.14857376247E+02 0.18551248738E+02
 0.22779723950E+02 0.27291908343E+02 0.31775151488E+02 0.35414869561E+02 0.37046894197E+02
 0.35742506406E+02 0.31161032082E+02 0.23705636459E+02 0.14512512751E+02 0.53333762247E+01
 -.17214761773E+01 -.45913058620E+01 -.17700575530E+01 0.71491386879E+01 0.21083831843E+02
 0.37663901007E+02 0.54272473164E+02 0.69407054268E+02 0.83349499824E+02 0.97643110154E+02
 0.11383401350E+03 0.13222774648E+03 0.15105222872E+03 0.16740433001E+03 0.17752560850E+03
 0.17750083687E+03 0.16573355228E+03 0.14428618678E+03 0.11774590969E+03 0.90639944986E+02
 0.66728706048E+02 0.47881266191E+02 0.39600852888E+02 0.28026781880E+02 0.19714416112E+02
 0.13820792295E+02 0.97594424705E+01 0.70934020231E+01 0.55050086791E+01 0.47441802544E+01
 0.45723449237E+01 0.48148814733E+01 0.54372690889E+01 0.64910573149E+01 0.80151098415E+01
 0.10059534257E+02 0.12749265042E+02 0.16206561681E+02 0.20406215889E+02 0.25166787794E+02
 0.30251696702E+02 0.35304592210E+02 0.39416501653E+02 0.41531621223E+02 0.40884359772E+02
 0.37214058403E+02 0.30870356324E+02 0.22882348654E+02 0.14922997567E+02 0.90432872809E+01
 0.71898785566E+01 0.10614752676E+02 0.19324923064E+02 0.31898474490E+02 0.46055492449E+02
 0.59874035254E+02 0.72835440912E+02 0.85890578848E+02 0.10055538710E+03 0.11769918888E+03
 0.13644015252E+03 0.15426628664E+03 0.16798488869E+03 0.17363007587E+03 0.16823704976E+03
 0.15196324236E+03 0.12824761775E+03 0.10169628529E+03 0.76472568046E+02 0.55514270955E+02
 0.44212810468E+02 0.31571166557E+02 0.22356423373E+02 0.15718055427E+02 0.11049277467E+02
 0.78919906405E+01 0.58938549767E+01 0.47996572593E+01 0.43871621769E+01 0.44498163862E+01
 0.48775452114E+01 0.56889787309E+01 0.69508281323E+01 0.87314102847E+01 0.11151074561E+02
 0.14376636310E+02 0.18493091347E+02 0.23419349894E+02 0.28971308330E+02 0.34934836918E+02
 0.40893816283E+02 0.45902221087E+02 0.48952139804E+02 0.49295811718E+02 0.46613932007E+02
 0.41164807204E+02 0.33926501704E+02 0.26568154998E+02 0.21115283819E+02 0.19370115594E+02
 0.22276252081E+02 0.29498103096E+02 0.39553182090E+02 0.50621807569E+02 0.61604899973E+02
 0.72674138491E+02 0.84932423936E+02 0.99471713953E+02 0.11620758933E+03 0.13343506814E+03
 0.14832585798E+03 0.15760422896E+03 0.15801860298E+03 0.14820847494E+03 0.12982225547E+03
 0.10655490877E+03 0.82495984587E+02 0.61159638084E+02 0.46977144615E+02 0.34071744058E+02
 0.24423197330E+02 0.17326940554E+02 0.12216546898E+02 0.86652452884E+01 0.63290550182E+01
 0.49446782099E+01 0.42968287890E+01 0.41804215295E+01 0.44486616262E+01 0.50798036066E+01
 0.61435949322E+01 0.77285068005E+01 0.99512907317E+01 0.12987496594E+02 0.16997438642E+02
 0.22013640143E+02 0.27937797885E+02 0.34606239668E+02 0.41775012887E+02 0.48906556078E+02
 0.54972781202E+02 0.58924235381E+02 0.59955306441E+02 0.57684555880E+02 0.52377016262E+02
 0.45106639858E+02 0.37630746123E+02 0.31919451674E+02 0.29527822510E+02 0.31072656501E+02
 0.36057025742E+02 0.43219931496E+02 0.51319702183E+02 0.59879029976E+02 0.69364953029E+02
 0.80688368511E+02 0.94203616918E+02 0.10904788227E+03 0.12321131530E+03 0.13387195995E+03
 0.13819945803E+03 0.13424099297E+03 0.12209178853E+03 0.10397329248E+03 0.83321591995E+02
 0.63590646726E+02 0.47308358002E+02 0.35093029254E+02 0.25605667768E+02 0.18426164500E+02
 0.13109624212E+02 0.93080117528E+01 0.67314389868E+01 0.51271148801E+01 0.42783480165E+01
 0.39925649689E+01 0.41201007842E+01 0.46075900622E+01 0.55080212800E+01 0.69294407262E+01
 0.90042875381E+01 0.11904038741E+02 0.15818636087E+02 0.20876781392E+02 0.27093910224E+02
 0.34380232727E+02 0.42524650629E+02 0.51120113817E+02 0.59431204981E+02 0.66297692568E+02
 0.70569879391E+02 0.71396512397E+02 0.68480612167E+02 0.62316936099E+02 0.54222990541E+02
 0.46033181980E+02 0.39561332555E+02 0.36064848833E+02 0.35909508425E+02 0.38586770175E+02
 0.43142879884E+02 0.48824598120E+02 0.55519733458E+02 0.63681336298E+02 0.73663225849E+02
 0.85151608757E+02 0.97009985710E+02 0.10726078626E+03 0.11349416868E+03 0.11368335035E+03
 0.10707172419E+03 0.94625395416E+02 0.78723852885E+02 0.62206456648E+02 0.45105487775E+02
 0.34424597949E+02 0.25696559232E+02 0.18836606164E+02 0.13592360041E+02 0.97261400266E+01
 0.70264245062E+01 0.52816206084E+01 0.42870838194E+01 0.38629025308E+01 0.38696164472E+01
 0.42388109479E+01 0.50008368501E+01 0.62709934308E+01 0.82083201786E+01 0.10994047575E+02
 0.14827034222E+02 0.19896238216E+02 0.26330199872E+02 0.34151029266E+02 0.43220358726E+02
 0.53153570379E+02 0.63246977550E+02 0.72464587569E+02 0.79443895105E+02 0.82941051853E+02
 0.82238210672E+02 0.77412744827E+02 0.69417972861E+02 0.59873590264E+02 0.50618025807E+02
 0.43212332714E+02 0.38576543745E+02 0.36864280610E+02 0.37626756838E+02 0.40215868578E+02