   9   9   0   0
  0.1255842E+02  0.4913800E-09  0.4913800E-09  0.5405200E-09  0.5000000E-15
  1.000000000000000E-004
  CAR 
 unknown system                          
     14.36145803    -20.37711789  301      1.10290155      1.00000000
    -20.377  0.0000E+00  0.0000E+00
    -20.261  0.0000E+00  0.0000E+00
    -20.146  0.0000E+00  0.0000E+00
    -20.030  0.0000E+00  0.0000E+00
    -19.914  0.0000E+00  0.0000E+00
    -19.798  0.0000E+00  0.0000E+00
    -19.682  0.0000E+00  0.0000E+00
    -19.567  0.0000E+00  0.0000E+00
    -19.451  0.0000E+00  0.0000E+00
    -19.335  0.0000E+00  0.0000E+00
    -19.219  0.0000E+00  0.0000E+00
    -19.103  0.0000E+00  0.0000E+00
    -18.988  0.0000E+00  0.0000E+00
    -18.872  0.0000E+00  0.0000E+00
    -18.756  0.0000E+00  0.0000E+00
    -18.640  0.0000E+00  0.0000E+00
    -18.524  0.0000E+00  0.0000E+00
    -18.409  0.0000E+00  0.0000E+00
    -18.293  0.9321E+00  0.2686E-01
    -18.177  0.1653E+01  0.1770E+00
    -18.061  0.2832E+01  0.4260E+00
    -17.945  0.4751E+01  0.8815E+00
    -17.830  0.8058E+01  0.1709E+01
    -17.714  0.4457E+00  0.1997E+01
    -17.598  0.1530E+01  0.2132E+01
    -17.482  0.3280E+01  0.2387E+01
    -17.366  0.7305E+01  0.3311E+01
    -17.251  0.1993E+01  0.3742E+01
    -17.135  0.8768E+00  0.3898E+01
    -17.019  0.6063E+00  0.3973E+01
    -16.903  0.3033E+01  0.4105E+01
    -16.787  0.7484E+01  0.5025E+01
    -16.672  0.2609E+01  0.5506E+01
    -16.556  0.1517E+01  0.5741E+01
    -16.440  0.9984E+00  0.5886E+01
    -16.324  0.5605E+00  0.5976E+01
    -16.208  0.5666E+02  0.9096E+01
    -16.093  0.0000E+00  0.1200E+02
    -15.977  0.0000E+00  0.1200E+02
    -15.861  0.0000E+00  0.1200E+02
    -15.745  0.0000E+00  0.1200E+02
    -15.630  0.0000E+00  0.1200E+02
    -15.514  0.0000E+00  0.1200E+02
    -15.398  0.0000E+00  0.1200E+02
    -15.282  0.0000E+00  0.1200E+02
    -15.166  0.0000E+00  0.1200E+02
    -15.051  0.0000E+00  0.1200E+02
    -14.935  0.0000E+00  0.1200E+02
    -14.819  0.0000E+00  0.1200E+02
    -14.703  0.0000E+00  0.1200E+02
    -14.587  0.0000E+00  0.1200E+02
    -14.472  0.0000E+00  0.1200E+02
    -14.356  0.0000E+00  0.1200E+02
    -14.240  0.0000E+00  0.1200E+02
    -14.124  0.0000E+00  0.1200E+02
    -14.008  0.0000E+00  0.1200E+02
    -13.893  0.0000E+00  0.1200E+02
    -13.777  0.0000E+00  0.1200E+02
    -13.661  0.0000E+00  0.1200E+02
    -13.545  0.0000E+00  0.1200E+02
    -13.429  0.0000E+00  0.1200E+02
    -13.314  0.0000E+00  0.1200E+02
    -13.198  0.0000E+00  0.1200E+02
    -13.082  0.0000E+00  0.1200E+02
    -12.966  0.0000E+00  0.1200E+02
    -12.850  0.0000E+00  0.1200E+02
    -12.735  0.0000E+00  0.1200E+02
    -12.619  0.0000E+00  0.1200E+02
    -12.503  0.0000E+00  0.1200E+02
    -12.387  0.0000E+00  0.1200E+02
    -12.271  0.0000E+00  0.1200E+02
    -12.156  0.0000E+00  0.1200E+02
    -12.040  0.0000E+00  0.1200E+02
    -11.924  0.0000E+00  0.1200E+02
    -11.808  0.0000E+00  0.1200E+02
    -11.692  0.0000E+00  0.1200E+02
    -11.577  0.0000E+00  0.1200E+02
    -11.461  0.0000E+00  0.1200E+02
    -11.345  0.0000E+00  0.1200E+02
    -11.229  0.0000E+00  0.1200E+02
    -11.113  0.0000E+00  0.1200E+02
    -10.998  0.0000E+00  0.1200E+02
    -10.882  0.0000E+00  0.1200E+02
    -10.766  0.0000E+00  0.1200E+02
    -10.650  0.0000E+00  0.1200E+02
    -10.535  0.0000E+00  0.1200E+02
    -10.419  0.0000E+00  0.1200E+02
    -10.303  0.0000E+00  0.1200E+02
    -10.187  0.0000E+00  0.1200E+02
    -10.071  0.0000E+00  0.1200E+02
     -9.956  0.0000E+00  0.1200E+02
     -9.840  0.0000E+00  0.1200E+02
     -9.724  0.0000E+00  0.1200E+02
     -9.608  0.0000E+00  0.1200E+02
     -9.492  0.0000E+00  0.1200E+02
     -9.377  0.0000E+00  0.1200E+02
     -9.261  0.0000E+00  0.1200E+02
     -9.145  0.0000E+00  0.1200E+02
     -9.029  0.0000E+00  0.1200E+02
     -8.913  0.0000E+00  0.1200E+02
     -8.798  0.0000E+00  0.1200E+02
     -8.682  0.0000E+00  0.1200E+02
     -8.566  0.0000E+00  0.1200E+02
     -8.450  0.0000E+00  0.1200E+02
     -8.334  0.0000E+00  0.1200E+02
     -8.219  0.3247E-01  0.1200E+02
     -8.103  0.3115E+00  0.1202E+02
     -7.987  0.4638E+00  0.1207E+02
     -7.871  0.6745E+00  0.1213E+02
     -7.755  0.8784E+00  0.1222E+02
     -7.640  0.1207E+01  0.1234E+02
     -7.524  0.1675E+01  0.1251E+02
     -7.408  0.3019E+01  0.1276E+02
     -7.292  0.7536E+01  0.1352E+02
     -7.176  0.9210E+00  0.1389E+02
     -7.061  0.4863E+00  0.1397E+02
     -6.945  0.2596E+00  0.1401E+02
     -6.829  0.2560E+00  0.1404E+02
     -6.713  0.3998E+00  0.1407E+02
     -6.597  0.6165E+00  0.1413E+02
     -6.482  0.1045E+01  0.1422E+02
     -6.366  0.1795E+01  0.1438E+02
     -6.250  0.4966E+01  0.1474E+02
     -6.134  0.3215E+01  0.1534E+02
     -6.019  0.1794E+01  0.1562E+02
     -5.903  0.1077E+01  0.1578E+02
     -5.787  0.7289E+00  0.1588E+02
     -5.671  0.4819E+00  0.1595E+02
     -5.555  0.1433E+00  0.1600E+02
     -5.440  0.1231E+01  0.1605E+02
     -5.324  0.3163E+01  0.1630E+02
     -5.208  0.2943E+01  0.1669E+02
     -5.092  0.2901E+01  0.1703E+02
     -4.976  0.2418E+01  0.1735E+02
     -4.861  0.1652E+01  0.1758E+02
     -4.745  0.1211E+01  0.1774E+02
     -4.629  0.8645E+00  0.1786E+02
     -4.513  0.7870E+00  0.1795E+02
     -4.397  0.4615E+01  0.1818E+02
     -4.282  0.1001E+02  0.1988E+02
     -4.166  0.5850E+01  0.2079E+02
     -4.050  0.5632E+01  0.2154E+02
     -3.934  0.1592E+01  0.2209E+02
     -3.818  0.8290E+01  0.2280E+02
     -3.703  0.4412E+01  0.2356E+02
     -3.587  0.1944E+01  0.2393E+02
     -3.471  0.0000E+00  0.2400E+02
     -3.355  0.0000E+00  0.2400E+02
     -3.239  0.0000E+00  0.2400E+02
     -3.124  0.0000E+00  0.2400E+02
     -3.008  0.0000E+00  0.2400E+02
     -2.892  0.0000E+00  0.2400E+02
     -2.776  0.0000E+00  0.2400E+02
     -2.660  0.0000E+00  0.2400E+02
     -2.545  0.0000E+00  0.2400E+02
     -2.429  0.0000E+00  0.2400E+02
     -2.313  0.0000E+00  0.2400E+02
     -2.197  0.0000E+00  0.2400E+02
     -2.081  0.1435E+02  0.2483E+02
     -1.966  0.5703E+01  0.2599E+02
     -1.850  0.5710E+01  0.2664E+02
     -1.734  0.6750E+01  0.2754E+02
     -1.618  0.5213E+01  0.2823E+02
     -1.502  0.1017E+02  0.2927E+02
     -1.387  0.3483E+01  0.2991E+02
     -1.271  0.2492E+01  0.3010E+02
     -1.155  0.1049E+02  0.3133E+02
     -1.039  0.2421E+01  0.3192E+02
     -0.924  0.2025E+02  0.3316E+02
     -0.808  0.1768E+01  0.3392E+02
     -0.692  0.6943E+01  0.3432E+02
     -0.576  0.7453E+01  0.3506E+02
     -0.460  0.1099E+02  0.3628E+02
     -0.345  0.5447E+01  0.3742E+02
     -0.229  0.4732E+01  0.3797E+02
     -0.113  0.1127E+02  0.3908E+02
      0.003  0.5059E+01  0.4006E+02
      0.119  0.1582E+02  0.4105E+02
      0.234  0.1283E+00  0.4200E+02
      0.350  0.1280E+02  0.4263E+02
      0.466  0.3519E+01  0.4368E+02
      0.582  0.4363E+01  0.4420E+02
      0.698  0.7158E+01  0.4484E+02
      0.813  0.9066E+01  0.4593E+02
      0.929  0.7813E+01  0.4667E+02
      1.045  0.5799E+01  0.4791E+02
      1.161  0.0000E+00  0.4800E+02
      1.277  0.0000E+00  0.4800E+02
      1.392  0.0000E+00  0.4800E+02
      1.508  0.0000E+00  0.4800E+02
      1.624  0.0000E+00  0.4800E+02
      1.740  0.0000E+00  0.4800E+02
      1.856  0.0000E+00  0.4800E+02
      1.971  0.0000E+00  0.4800E+02
      2.087  0.0000E+00  0.4800E+02
      2.203  0.0000E+00  0.4800E+02
      2.319  0.0000E+00  0.4800E+02
      2.435  0.0000E+00  0.4800E+02
      2.550  0.0000E+00  0.4800E+02
      2.666  0.0000E+00  0.4800E+02
      2.782  0.0000E+00  0.4800E+02
      2.898  0.0000E+00  0.4800E+02
      3.014  0.0000E+00  0.4800E+02
      3.129  0.0000E+00  0.4800E+02
      3.245  0.0000E+00  0.4800E+02
      3.361  0.0000E+00  0.4800E+02
      3.477  0.0000E+00  0.4800E+02
      3.592  0.0000E+00  0.4800E+02
      3.708  0.0000E+00  0.4800E+02
      3.824  0.0000E+00  0.4800E+02
      3.940  0.0000E+00  0.4800E+02
      4.056  0.0000E+00  0.4800E+02
      4.171  0.0000E+00  0.4800E+02
      4.287  0.0000E+00  0.4800E+02
      4.403  0.0000E+00  0.4800E+02
      4.519  0.0000E+00  0.4800E+02
      4.635  0.0000E+00  0.4800E+02
      4.750  0.0000E+00  0.4800E+02
      4.866  0.0000E+00  0.4800E+02
      4.982  0.0000E+00  0.4800E+02
      5.098  0.0000E+00  0.4800E+02
      5.214  0.0000E+00  0.4800E+02
      5.329  0.0000E+00  0.4800E+02
      5.445  0.0000E+00  0.4800E+02
      5.561  0.0000E+00  0.4800E+02
      5.677  0.0000E+00  0.4800E+02
      5.793  0.0000E+00  0.4800E+02
      5.908  0.0000E+00  0.4800E+02
      6.024  0.0000E+00  0.4800E+02
      6.140  0.0000E+00  0.4800E+02
      6.256  0.0000E+00  0.4800E+02
      6.372  0.0000E+00  0.4800E+02
      6.487  0.0000E+00  0.4800E+02
      6.603  0.0000E+00  0.4800E+02
      6.719  0.0000E+00  0.4800E+02
      6.835  0.0000E+00  0.4800E+02
      6.951  0.0000E+00  0.4800E+02
      7.066  0.0000E+00  0.4800E+02
      7.182  0.4589E-02  0.4800E+02
      7.298  0.3370E-01  0.4800E+02
      7.414  0.8964E-01  0.4801E+02
      7.530  0.1764E+00  0.4802E+02
      7.645  0.2357E+00  0.4805E+02
      7.761  0.2713E+00  0.4808E+02
      7.877  0.2889E+00  0.4811E+02
      7.993  0.3330E+00  0.4815E+02
      8.109  0.3809E+00  0.4819E+02
      8.224  0.4314E+00  0.4823E+02
      8.340  0.4844E+00  0.4829E+02
      8.456  0.5395E+00  0.4835E+02
      8.572  0.6661E+00  0.4842E+02
      8.687  0.8199E+00  0.4850E+02
      8.803  0.8148E+00  0.4860E+02
      8.919  0.8756E+00  0.4870E+02
      9.035  0.9386E+00  0.4880E+02
      9.151  0.1004E+01  0.4891E+02
      9.266  0.1093E+01  0.4903E+02
      9.382  0.1523E+01  0.4919E+02
      9.498  0.1349E+01  0.4937E+02
      9.614  0.1239E+01  0.4951E+02
      9.730  0.1402E+01  0.4966E+02
      9.845  0.1479E+01  0.4983E+02
      9.961  0.1709E+01  0.5005E+02
     10.077  0.1087E+01  0.5020E+02
     10.193  0.2043E+01  0.5035E+02
     10.309  0.6151E+01  0.5077E+02
     10.424  0.6129E+01  0.5187E+02
     10.540  0.4287E+01  0.5236E+02
     10.656  0.8305E+01  0.5311E+02
     10.772  0.6485E+01  0.5399E+02
     10.888  0.2509E+01  0.5447E+02
     11.003  0.4112E+01  0.5481E+02
     11.119  0.7821E+01  0.5553E+02
     11.235  0.4695E+01  0.5609E+02
     11.351  0.6711E+01  0.5679E+02
     11.467  0.7060E+01  0.5762E+02
     11.582  0.1483E+01  0.5805E+02
     11.698  0.1074E+02  0.5851E+02
     11.814  0.4960E+01  0.5953E+02
     11.930  0.9777E+00  0.5979E+02
     12.046  0.6327E+00  0.5988E+02
     12.161  0.4684E+00  0.5995E+02
     12.277  0.2985E+00  0.5999E+02
     12.393  0.0000E+00  0.6000E+02
     12.509  0.0000E+00  0.6000E+02
     12.625  0.0000E+00  0.6000E+02
     12.740  0.0000E+00  0.6000E+02
     12.856  0.0000E+00  0.6000E+02
     12.972  0.0000E+00  0.6000E+02
     13.088  0.0000E+00  0.6000E+02
     13.204  0.0000E+00  0.6000E+02
     13.319  0.0000E+00  0.6000E+02
     13.435  0.0000E+00  0.6000E+02
     13.551  0.0000E+00  0.6000E+02
     13.667  0.0000E+00  0.6000E+02
     13.782  0.0000E+00  0.6000E+02
     13.898  0.0000E+00  0.6000E+02
     14.014  0.0000E+00  0.6000E+02
     14.130  0.0000E+00  0.6000E+02
     14.246  0.0000E+00  0.6000E+02
     14.361  0.0000E+00  0.6000E+02
