       N       E                     dE             d eps       ncg     rms          rms(c)
DAV:   1     0.268848197796E+03    0.26885E+03   -0.22545E+04  1644   0.121E+03
DAV:   2    -0.635638584674E+02   -0.33241E+03   -0.32472E+03  2138   0.310E+02
DAV:   3    -0.803583497308E+02   -0.16794E+02   -0.16744E+02  1944   0.785E+01
DAV:   4    -0.805554381887E+02   -0.19709E+00   -0.19681E+00  1944   0.927E+00
DAV:   5    -0.805591804494E+02   -0.37423E-02   -0.37413E-02  1926   0.124E+00    0.184E+01
RMM:   6    -0.711678352150E+02    0.93913E+01   -0.38475E+01  1719   0.316E+01    0.514E+00
RMM:   7    -0.711354427769E+02    0.32392E-01   -0.15699E+00  1899   0.565E+00    0.338E+00
RMM:   8    -0.711510592054E+02   -0.15616E-01   -0.24103E-01  1826   0.377E+00    0.606E-01
RMM:   9    -0.711440092711E+02    0.70499E-02   -0.49078E-02  1941   0.112E+00    0.127E-01
RMM:  10    -0.711470084639E+02   -0.29992E-02   -0.15063E-02  1899   0.618E-01    0.227E-01
RMM:  11    -0.711457238491E+02    0.12846E-02   -0.24868E-03  1936   0.277E-01    0.670E-02
RMM:  12    -0.711456610498E+02    0.62799E-04   -0.82649E-04  1927   0.146E-01    0.895E-03
RMM:  13    -0.711456628365E+02   -0.17867E-05   -0.22126E-05  1360   0.268E-02
   1 F= -.71145663E+02 E0= -.71145663E+02  d E =0.000000E+00
