Starting job 12551961 on c5-[46-48] on saga at Fri Sep 13 11:31:01 CEST 2024

The following modules were not unloaded:
  (Use "module --force purge" to unload all):

  1) StdEnv
 running on    4 total cores
 distrk:  each k-point on    4 cores,    1 groups
 distr:  one band on    2 cores,    2 groups
 using from now: INCAR     
 vasp.5.4.4.18Apr17-6-g9f103f2a35 (build Jul 15 2019 14:02:39) complex          
  
 POSCAR found type information on POSCAR  Si O 
 POSCAR found :  2 types and       9 ions
 scaLAPACK will be used
 LDA part: xc-table for Pade appr. of Perdew
 POSCAR, INCAR and KPOINTS ok, starting setup
 FFT: planning ...
 WAVECAR not read
 entering main loop
       N       E                     dE             d eps       ncg     rms          rms(c)
DAV:   1     0.268848197796E+03    0.26885E+03   -0.22545E+04  1644   0.121E+03
DAV:   2    -0.635638584674E+02   -0.33241E+03   -0.32472E+03  2138   0.310E+02
DAV:   3    -0.803583497308E+02   -0.16794E+02   -0.16744E+02  1944   0.785E+01
DAV:   4    -0.805554381887E+02   -0.19709E+00   -0.19681E+00  1944   0.927E+00
DAV:   5    -0.805591804494E+02   -0.37423E-02   -0.37413E-02  1926   0.124E+00    0.184E+01
RMM:   6    -0.711678352150E+02    0.93913E+01   -0.38475E+01  1719   0.316E+01    0.514E+00
RMM:   7    -0.711354427769E+02    0.32392E-01   -0.15699E+00  1899   0.565E+00    0.338E+00
RMM:   8    -0.711510592054E+02   -0.15616E-01   -0.24103E-01  1826   0.377E+00    0.606E-01
RMM:   9    -0.711440092711E+02    0.70499E-02   -0.49078E-02  1941   0.112E+00    0.127E-01
RMM:  10    -0.711470084639E+02   -0.29992E-02   -0.15063E-02  1899   0.618E-01    0.227E-01
RMM:  11    -0.711457238491E+02    0.12846E-02   -0.24868E-03  1936   0.277E-01    0.670E-02
RMM:  12    -0.711456610498E+02    0.62799E-04   -0.82649E-04  1927   0.146E-01    0.895E-03
RMM:  13    -0.711456628365E+02   -0.17867E-05   -0.22126E-05  1360   0.268E-02
   1 F= -.71145663E+02 E0= -.71145663E+02  d E =0.000000E+00

Job 12551961 consumed 0.0 billing hours from project nn9988k.

Submitted 2024-09-13T11:30:58; waited 3.0 seconds in the queue after becoming eligible to run.

Requested wallclock time: 10.0 minutes
Elapsed wallclock time:   39.0 seconds

Task and CPU statistics:
ID              CPUs  Tasks  CPU util                Start  Elapsed  Exit status
12551961           4            0.0 %  2024-09-13T11:31:01   39.0 s  0
12551961.batch     1      1     7.0 %  2024-09-13T11:31:01   39.0 s  0
12551961.vasp      4      4    72.7 %  2024-09-13T11:31:07   33.0 s  0

Used CPU time:   1.6 CPU minutes
Unused CPU time: 57.3 CPU seconds

Memory statistics, in GiB:
ID               Alloc   Usage
12551961          14.8        
12551961.batch     3.7     0.0
12551961.vasp     14.8     0.7

Job 12551961 completed at Fri Sep 13 11:31:41 CEST 2024
