<?xml version="1.0" encoding="ISO-8859-1"?>
<modeling>
 <generator>
  <i name="program" type="string">vasp </i>
  <i name="version" type="string">5.4.4.18Apr17-6-g9f103f2a35  </i>
  <i name="subversion" type="string">(build Jul 15 2019 14:02:39) complex            parallel </i>
  <i name="platform" type="string">TEST </i>
  <i name="date" type="string">2024 09 13 </i>
  <i name="time" type="string">11:31:14 </i>
 </generator>
 <incar>
  <i type="string" name="PREC">normal    ! low/normal/accurate</i>
  <i type="string" name="ALGO"> Fast      ! Algorithm for electronic re</i>
  <i type="int" name="ISPIN">     1</i>
  <i type="int" name="NELMIN">     4</i>
  <i name="EDIFF">      0.00001000</i>
  <i type="int" name="NSW">     0</i>
  <i name="ENCUT">    400.00000000</i>
  <i type="string" name="LREAL"> Auto      ! Projection in reciprocal sp</i>
  <i type="int" name="ISMEAR">    -5</i>
  <i name="SIGMA">      0.20000000</i>
  <i type="logical" name="LWAVE"> F  </i>
  <v type="int" name="KPOINT_BSE">    -1     0     0     0</v>
 </incar>
 <structure name="primitive_cell" >
  <crystal>
   <varray name="basis" >
    <v>       4.91380000       0.00000000       0.00000000 </v>
    <v>      -2.45690000       4.25547563       0.00000000 </v>
    <v>       0.00000000       0.00000000       5.40520000 </v>
   </varray>
   <i name="volume">    113.02573808 </i>
   <varray name="rec_basis" >
    <v>       0.20350849       0.11749568       0.00000000 </v>
    <v>       0.00000000       0.23499136       0.00000000 </v>
    <v>       0.00000000       0.00000000       0.18500703 </v>
   </varray>
  </crystal>
  <varray name="positions" >
   <v>       0.46980000       0.00000000      -0.33333333 </v>
   <v>       0.14830000      -0.26620000      -0.45226667 </v>
   <v>       0.41450000       0.26620000      -0.21440000 </v>
   <v>      -0.26620000       0.14830000       0.45226667 </v>
   <v>      -0.41450000      -0.14830000      -0.11893333 </v>
   <v>       0.00000000       0.46980000       0.33333333 </v>
   <v>      -0.46980000      -0.46980000       0.00000000 </v>
   <v>       0.26620000       0.41450000       0.21440000 </v>
   <v>      -0.14830000      -0.41450000       0.11893333 </v>
  </varray>
 </structure>
 <varray name="primitive_index" >
  <v type="int" >        1 </v>
  <v type="int" >        6 </v>
  <v type="int" >        4 </v>
  <v type="int" >        9 </v>
  <v type="int" >        5 </v>
  <v type="int" >        3 </v>
  <v type="int" >        2 </v>
  <v type="int" >        7 </v>
  <v type="int" >        8 </v>
 </varray>
 <kpoints>
  <generation param="Gamma">
   <v type="int" name="divisions">       6        6        5 </v>
   <v name="usershift">      0.00000000       0.00000000       0.00000000 </v>
   <v name="genvec1">      0.16666667      -0.00000000       0.00000000 </v>
   <v name="genvec2">      0.00000000       0.16666667       0.00000000 </v>
   <v name="genvec3">      0.00000000       0.00000000       0.20000000 </v>
   <v name="shift">      0.00000000       0.00000000       0.00000000 </v>
  </generation>
  <varray name="kpointlist" >
   <v>       0.00000000       0.00000000       0.00000000 </v>
   <v>       0.16666667       0.00000000       0.00000000 </v>
   <v>       0.33333333       0.00000000       0.00000000 </v>
   <v>       0.50000000       0.00000000       0.00000000 </v>
   <v>       0.16666667       0.16666667       0.00000000 </v>
   <v>       0.33333333       0.16666667       0.00000000 </v>
   <v>       0.33333333       0.33333333       0.00000000 </v>
   <v>       0.00000000       0.00000000       0.20000000 </v>
   <v>       0.16666667       0.00000000       0.20000000 </v>
   <v>       0.33333333       0.00000000       0.20000000 </v>
   <v>       0.50000000       0.00000000       0.20000000 </v>
   <v>      -0.33333333       0.00000000       0.20000000 </v>
   <v>      -0.16666667       0.00000000       0.20000000 </v>
   <v>       0.16666667       0.16666667       0.20000000 </v>
   <v>       0.33333333       0.16666667       0.20000000 </v>
   <v>       0.50000000       0.16666667       0.20000000 </v>
   <v>       0.33333333       0.33333333       0.20000000 </v>
   <v>       0.00000000       0.00000000       0.40000000 </v>
   <v>       0.16666667       0.00000000       0.40000000 </v>
   <v>       0.33333333       0.00000000       0.40000000 </v>
   <v>       0.50000000       0.00000000       0.40000000 </v>
   <v>      -0.33333333       0.00000000       0.40000000 </v>
   <v>      -0.16666667       0.00000000       0.40000000 </v>
   <v>       0.16666667       0.16666667       0.40000000 </v>
   <v>       0.33333333       0.16666667       0.40000000 </v>
   <v>       0.50000000       0.16666667       0.40000000 </v>
   <v>       0.33333333       0.33333333       0.40000000 </v>
  </varray>
  <varray name="weights" >
   <v>       0.00555556 </v>
   <v>       0.03333333 </v>
   <v>       0.03333333 </v>
   <v>       0.01666667 </v>
   <v>       0.03333333 </v>
   <v>       0.06666667 </v>
   <v>       0.01111111 </v>
   <v>       0.01111111 </v>
   <v>       0.03333333 </v>
   <v>       0.03333333 </v>
   <v>       0.03333333 </v>
   <v>       0.03333333 </v>
   <v>       0.03333333 </v>
   <v>       0.06666667 </v>
   <v>       0.06666667 </v>
   <v>       0.06666667 </v>
   <v>       0.02222222 </v>
   <v>       0.01111111 </v>
   <v>       0.03333333 </v>
   <v>       0.03333333 </v>
   <v>       0.03333333 </v>
   <v>       0.03333333 </v>
   <v>       0.03333333 </v>
   <v>       0.06666667 </v>
   <v>       0.06666667 </v>
   <v>       0.06666667 </v>
   <v>       0.02222222 </v>
  </varray>
  <varray name="tetrahedronlist"  type="int" >
   <v type="int" >        4        2        2        5       13 </v>
   <v type="int" >        4        1        2        2       13 </v>
   <v type="int" >        4        1        2        8       13 </v>
   <v type="int" >        4        2        5       13       14 </v>
   <v type="int" >        8        2        9       13       14 </v>
   <v type="int" >        8        2        8        9       13 </v>
   <v type="int" >        8        3        5        6       14 </v>
   <v type="int" >        8        2        3        5       14 </v>
   <v type="int" >        4        2        3        9       14 </v>
   <v type="int" >        4        3        6       14       15 </v>
   <v type="int" >        4        3       10       14       15 </v>
   <v type="int" >        4        3        9       10       14 </v>
   <v type="int" >        4        4        6        6       15 </v>
   <v type="int" >        4        3        4        6       15 </v>
   <v type="int" >        4        3        4       10       15 </v>
   <v type="int" >        4        4        6       15       16 </v>
   <v type="int" >        4        4       11       15       16 </v>
   <v type="int" >        4        4       10       11       15 </v>
   <v type="int" >        4        3        5        6       16 </v>
   <v type="int" >        4        3        4        6       16 </v>
   <v type="int" >        4        3        4       11       16 </v>
   <v type="int" >        4        3        5       14       16 </v>
   <v type="int" >        4        3       12       14       16 </v>
   <v type="int" >        4        3       11       12       16 </v>
   <v type="int" >        4        2        2        5       14 </v>
   <v type="int" >        4        2        3       12       14 </v>
   <v type="int" >        4        2        2        9       14 </v>
   <v type="int" >        4        2       12       13       14 </v>
   <v type="int" >        4        1        2        2        9 </v>
   <v type="int" >        4        1        2        9       13 </v>
   <v type="int" >        4        1        8        9       13 </v>
   <v type="int" >        4        3        5        6       12 </v>
   <v type="int" >        4        2        3        5       12 </v>
   <v type="int" >        4        2        5       12       13 </v>
   <v type="int" >        4        5        6       12       16 </v>
   <v type="int" >        4        5       12       14       16 </v>
   <v type="int" >        4        5       12       13       14 </v>
   <v type="int" >        8        6        6        7       16 </v>
   <v type="int" >        4        5        6        6       16 </v>
   <v type="int" >        4        5        6       14       16 </v>
   <v type="int" >        8        6        7       16       17 </v>
   <v type="int" >       16        6       15       16       17 </v>
   <v type="int" >        8        6       14       15       16 </v>
   <v type="int" >        8        6        6        7       17 </v>
   <v type="int" >        8        6        6       15       17 </v>
   <v type="int" >        4        3        5        6       15 </v>
   <v type="int" >        4        5        6        6       15 </v>
   <v type="int" >        4        5        6       15       16 </v>
   <v type="int" >        4        3        5       10       15 </v>
   <v type="int" >        4        5       10       14       15 </v>
   <v type="int" >        4        5       14       15       16 </v>
   <v type="int" >        4        2        3        5       10 </v>
   <v type="int" >        4        2        5       10       14 </v>
   <v type="int" >        4        2        9       10       14 </v>
   <v type="int" >        4        4        6        6       11 </v>
   <v type="int" >        8        3        4        6       11 </v>
   <v type="int" >        4        3        6       11       12 </v>
   <v type="int" >        4        6        6       11       15 </v>
   <v type="int" >        8        6       11       15       16 </v>
   <v type="int" >        4        6       11       12       16 </v>
   <v type="int" >        8        6        6        7       15 </v>
   <v type="int" >        8        6        7       15       16 </v>
   <v type="int" >        8        7       15       16       17 </v>
   <v type="int" >        4        4        6        6       16 </v>
   <v type="int" >        4        4        6       11       16 </v>
   <v type="int" >        4        3        6       11       15 </v>
   <v type="int" >        4        3       10       11       15 </v>
   <v type="int" >        4        3        5        6       10 </v>
   <v type="int" >        4        3        4        6       10 </v>
   <v type="int" >        4        4        6       10       11 </v>
   <v type="int" >        4        5        6       10       14 </v>
   <v type="int" >        4        6       10       14       15 </v>
   <v type="int" >        4        6       10       11       15 </v>
   <v type="int" >        4        5        6        6       14 </v>
   <v type="int" >        4        6        6       14       15 </v>
   <v type="int" >        4        3        6       12       14 </v>
   <v type="int" >        4        6       12       14       16 </v>
   <v type="int" >        4        3        4        6       12 </v>
   <v type="int" >        4        4        6       12       16 </v>
   <v type="int" >        4        4       11       12       16 </v>
   <v type="int" >        4        2        2        5        9 </v>
   <v type="int" >        4        2        3        5        9 </v>
   <v type="int" >        4        3        5        9       10 </v>
   <v type="int" >        4        2        5        9       13 </v>
   <v type="int" >        4        5        9       13       14 </v>
   <v type="int" >        4        5        9       10       14 </v>
   <v type="int" >        4        2        3        5       13 </v>
   <v type="int" >        4        3        5       13       14 </v>
   <v type="int" >        4        3       12       13       14 </v>
   <v type="int" >        4        1        2        2        8 </v>
   <v type="int" >        4        2        2        8        9 </v>
   <v type="int" >        4        9       13       14       23 </v>
   <v type="int" >        4        8        9       13       23 </v>
   <v type="int" >        4        8        9       18       23 </v>
   <v type="int" >        4        9       14       23       24 </v>
   <v type="int" >        4        9       19       23       24 </v>
   <v type="int" >        4        9       18       19       23 </v>
   <v type="int" >        4       10       14       15       24 </v>
   <v type="int" >        4        9       10       14       24 </v>
   <v type="int" >        4        9       10       19       24 </v>
   <v type="int" >        4       10       15       24       25 </v>
   <v type="int" >        4       10       20       24       25 </v>
   <v type="int" >        4       10       19       20       24 </v>
   <v type="int" >        4       11       15       16       25 </v>
   <v type="int" >        4       10       11       15       25 </v>
   <v type="int" >        4       10       11       20       25 </v>
   <v type="int" >        4       11       16       25       26 </v>
   <v type="int" >        4       11       21       25       26 </v>
   <v type="int" >        4       11       20       21       25 </v>
   <v type="int" >        4       12       14       16       26 </v>
   <v type="int" >        4       11       12       16       26 </v>
   <v type="int" >        4       11       12       21       26 </v>
   <v type="int" >        4       12       14       24       26 </v>
   <v type="int" >        4       12       22       24       26 </v>
   <v type="int" >        4       12       21       22       26 </v>
   <v type="int" >        4        9       13       14       24 </v>
   <v type="int" >        4       12       13       14       24 </v>
   <v type="int" >        4       12       13       22       24 </v>
   <v type="int" >        4        9       13       19       24 </v>
   <v type="int" >        4       13       19       23       24 </v>
   <v type="int" >        4       13       22       23       24 </v>
   <v type="int" >        4        8        9       13       19 </v>
   <v type="int" >        4        8       13       19       23 </v>
   <v type="int" >        4        8       18       19       23 </v>
   <v type="int" >        4       12       14       16       22 </v>
   <v type="int" >        4       12       13       14       22 </v>
   <v type="int" >        4       13       14       22       23 </v>
   <v type="int" >        4       14       16       22       26 </v>
   <v type="int" >        4       14       22       24       26 </v>
   <v type="int" >        4       14       22       23       24 </v>
   <v type="int" >        8       15       16       17       26 </v>
   <v type="int" >        4       14       15       16       26 </v>
   <v type="int" >        4       14       15       24       26 </v>
   <v type="int" >        8       15       17       26       27 </v>
   <v type="int" >        8       15       25       26       27 </v>
   <v type="int" >        4       15       24       25       26 </v>
   <v type="int" >        8       15       16       17       27 </v>
   <v type="int" >        8       15       16       25       27 </v>
   <v type="int" >        8       16       25       26       27 </v>
   <v type="int" >        4       10       14       15       25 </v>
   <v type="int" >        4       14       15       16       25 </v>
   <v type="int" >        4       14       16       25       26 </v>
   <v type="int" >        4       10       14       20       25 </v>
   <v type="int" >        4       14       20       24       25 </v>
   <v type="int" >        4       14       24       25       26 </v>
   <v type="int" >        4        9       10       14       20 </v>
   <v type="int" >        4        9       14       20       24 </v>
   <v type="int" >        4        9       19       20       24 </v>
   <v type="int" >        4       11       15       16       21 </v>
   <v type="int" >        4       11       12       16       21 </v>
   <v type="int" >        4       12       16       21       22 </v>
   <v type="int" >        4       15       16       21       25 </v>
   <v type="int" >        4       16       21       25       26 </v>
   <v type="int" >        4       16       21       22       26 </v>
   <v type="int" >        8       15       16       17       25 </v>
   <v type="int" >        8       16       17       25       26 </v>
   <v type="int" >        8       17       25       26       27 </v>
   <v type="int" >        4       11       15       16       26 </v>
   <v type="int" >        4       11       15       21       26 </v>
   <v type="int" >        4       15       21       25       26 </v>
   <v type="int" >        4       10       11       15       21 </v>
   <v type="int" >        4       10       15       21       25 </v>
   <v type="int" >        4       10       20       21       25 </v>
   <v type="int" >        4       10       14       15       20 </v>
   <v type="int" >        4       10       11       15       20 </v>
   <v type="int" >        4       11       15       20       21 </v>
   <v type="int" >        4       14       15       20       24 </v>
   <v type="int" >        4       15       20       24       25 </v>
   <v type="int" >        4       15       20       21       25 </v>
   <v type="int" >        4       12       14       16       24 </v>
   <v type="int" >        4       14       15       16       24 </v>
   <v type="int" >        4       15       16       24       25 </v>
   <v type="int" >        4       12       16       22       24 </v>
   <v type="int" >        4       16       22       24       26 </v>
   <v type="int" >        4       16       24       25       26 </v>
   <v type="int" >        4       11       12       16       22 </v>
   <v type="int" >        4       11       16       22       26 </v>
   <v type="int" >        4       11       21       22       26 </v>
   <v type="int" >        4        9       13       14       19 </v>
   <v type="int" >        4        9       10       14       19 </v>
   <v type="int" >        4       10       14       19       20 </v>
   <v type="int" >        4       13       14       19       23 </v>
   <v type="int" >        4       14       19       23       24 </v>
   <v type="int" >        4       14       19       20       24 </v>
   <v type="int" >        4       12       13       14       23 </v>
   <v type="int" >        4       12       14       23       24 </v>
   <v type="int" >        4       12       22       23       24 </v>
   <v type="int" >        4        8        9       13       18 </v>
   <v type="int" >        4        9       13       18       19 </v>
   <v type="int" >        4       13       18       19       23 </v>
   <v type="int" >        4       19       19       23       24 </v>
   <v type="int" >        4       18       19       19       23 </v>
   <v type="int" >        2       18       18       19       19 </v>
   <v type="int" >        2       19       19       24       24 </v>
   <v type="int" >        4       20       24       24       25 </v>
   <v type="int" >        4       19       20       24       24 </v>
   <v type="int" >        8       19       20       23       24 </v>
   <v type="int" >        8       20       24       25       26 </v>
   <v type="int" >        8       20       22       24       26 </v>
   <v type="int" >        8       20       22       23       24 </v>
   <v type="int" >        8       21       25       26       26 </v>
   <v type="int" >        8       20       21       25       26 </v>
   <v type="int" >        8       20       21       22       26 </v>
   <v type="int" >        4       21       21       25       26 </v>
   <v type="int" >        4       21       21       22       26 </v>
   <v type="int" >        4       22       24       25       26 </v>
   <v type="int" >        4       21       22       25       26 </v>
   <v type="int" >        4       21       21       22       25 </v>
   <v type="int" >        4       22       24       24       25 </v>
   <v type="int" >        4       20       22       24       25 </v>
   <v type="int" >        4       20       21       22       25 </v>
   <v type="int" >        4       19       23       24       24 </v>
   <v type="int" >        4       22       23       24       24 </v>
   <v type="int" >        8       19       23       23       24 </v>
   <v type="int" >        8       18       19       23       23 </v>
   <v type="int" >        4       18       18       19       23 </v>
   <v type="int" >        8       25       25       26       27 </v>
   <v type="int" >        4       24       25       25       26 </v>
   <v type="int" >        2       24       24       25       25 </v>
   <v type="int" >        4       25       25       27       27 </v>
   <v type="int" >        8       25       26       27       27 </v>
   <v type="int" >       16       25       26       26       27 </v>
   <v type="int" >        8       24       25       26       26 </v>
   <v type="int" >        4       22       24       24       26 </v>
   <v type="int" >        4       24       24       25       26 </v>
   <v type="int" >        4       19       20       22       24 </v>
   <v type="int" >        4       19       22       24       24 </v>
   <v type="int" >        4       19       22       23       24 </v>
   <v type="int" >        4       21       25       25       26 </v>
   <v type="int" >        2       21       21       25       25 </v>
   <v type="int" >        4       20       21       21       25 </v>
  </varray>
  <i name="volumeweight">      0.00092593 </i>
 </kpoints>
 <parameters>
  <separator name="general" >
   <i type="string" name="SYSTEM">unknown system</i>
   <i type="logical" name="LCOMPAT"> F  </i>
  </separator>
  <separator name="electronic" >
   <i type="string" name="PREC">normal</i>
   <i name="ENMAX">    400.00000000</i>
   <i name="ENAUG">    605.39200000</i>
   <i name="EDIFF">      0.00001000</i>
   <i type="int" name="IALGO">    68</i>
   <i type="int" name="IWAVPR">    10</i>
   <i type="int" name="NBANDS">    30</i>
   <i name="NELECT">     48.00000000</i>
   <i type="int" name="TURBO">     0</i>
   <i type="int" name="IRESTART">     0</i>
   <i type="int" name="NREBOOT">     0</i>
   <i type="int" name="NMIN">     0</i>
   <i name="EREF">      0.00000000</i>
   <separator name="electronic smearing" >
    <i type="int" name="ISMEAR">    -5</i>
    <i name="SIGMA">      0.20000000</i>
    <i name="KSPACING">      0.50000000</i>
    <i type="logical" name="KGAMMA"> T  </i>
   </separator>
   <separator name="electronic projectors" >
    <i type="logical" name="LREAL"> T  </i>
    <v name="ROPT">     -0.00050000     -0.00050000</v>
    <i type="int" name="LMAXPAW">  -100</i>
    <i type="int" name="LMAXMIX">     2</i>
    <i type="logical" name="NLSPLINE"> F  </i>
   </separator>
   <separator name="electronic startup" >
    <i type="int" name="ISTART">     0</i>
    <i type="int" name="ICHARG">     2</i>
    <i type="int" name="INIWAV">     1</i>
   </separator>
   <separator name="electronic spin" >
    <i type="int" name="ISPIN">     1</i>
    <i type="logical" name="LNONCOLLINEAR"> F  </i>
    <v name="MAGMOM">      1.00000000      1.00000000      1.00000000      1.00000000      1.00000000      1.00000000      1.00000000      1.00000000      1.00000000</v>
    <i name="NUPDOWN">     -1.00000000</i>
    <i type="logical" name="LSORBIT"> F  </i>
    <v name="SAXIS">      0.00000000      0.00000000      1.00000000</v>
    <i type="logical" name="LSPIRAL"> F  </i>
    <v name="QSPIRAL">      0.00000000      0.00000000      0.00000000</v>
    <i type="logical" name="LZEROZ"> F  </i>
   </separator>
   <separator name="electronic exchange-correlation" >
    <i type="logical" name="LASPH"> F  </i>
    <i type="logical" name="LMETAGGA"> F  </i>
   </separator>
   <separator name="electronic convergence" >
    <i type="int" name="NELM">    60</i>
    <i type="int" name="NELMDL">    -5</i>
    <i type="int" name="NELMIN">     4</i>
    <i name="ENINI">    400.00000000</i>
    <separator name="electronic convergence detail" >
     <i type="logical" name="LDIAG"> T  </i>
     <i type="logical" name="LSUBROT"> F  </i>
     <i name="WEIMIN">      0.00000000</i>
     <i name="EBREAK">      0.00000008</i>
     <i name="DEPER">      0.30000000</i>
     <i type="int" name="NRMM">     4</i>
     <i name="TIME">      0.40000000</i>
    </separator>
   </separator>
   <separator name="electronic mixer" >
    <i name="AMIX">      0.40000000</i>
    <i name="BMIX">      1.00000000</i>
    <i name="AMIN">      0.10000000</i>
    <i name="AMIX_MAG">      1.60000000</i>
    <i name="BMIX_MAG">      1.00000000</i>
    <separator name="electronic mixer details" >
     <i type="int" name="IMIX">     4</i>
     <i type="logical" name="MIXFIRST"> F  </i>
     <i type="int" name="MAXMIX">   -45</i>
     <i name="WC">    100.00000000</i>
     <i type="int" name="INIMIX">     1</i>
     <i type="int" name="MIXPRE">     1</i>
     <i type="int" name="MREMOVE">     5</i>
    </separator>
   </separator>
   <separator name="electronic dipolcorrection" >
    <i type="logical" name="LDIPOL"> F  </i>
    <i type="logical" name="LMONO"> F  </i>
    <i type="int" name="IDIPOL">     0</i>
    <i name="EPSILON">      1.00000000</i>
    <v name="DIPOL">   -100.00000000   -100.00000000   -100.00000000</v>
    <i name="EFIELD">      0.00000000</i>
   </separator>
  </separator>
  <separator name="grids" >
   <i type="int" name="NGX">    24</i>
   <i type="int" name="NGY">    24</i>
   <i type="int" name="NGZ">    28</i>
   <i type="int" name="NGXF">    48</i>
   <i type="int" name="NGYF">    48</i>
   <i type="int" name="NGZF">    56</i>
   <i type="logical" name="ADDGRID"> F  </i>
  </separator>
  <separator name="ionic" >
   <i type="int" name="NSW">     0</i>
   <i type="int" name="IBRION">    -1</i>
   <i type="int" name="MDALGO">     0</i>
   <i type="int" name="ISIF">     2</i>
   <i name="PSTRESS">      0.00000000</i>
   <i name="EDIFFG">      0.00010000</i>
   <i type="int" name="NFREE">     0</i>
   <i name="POTIM">      0.50000000</i>
   <i name="SMASS">     -3.00000000</i>
   <i name="SCALEE">      1.00000000</i>
  </separator>
  <separator name="ionic md" >
   <i name="TEBEG">      0.00010000</i>
   <i name="TEEND">      0.00010000</i>
   <i type="int" name="NBLOCK">     1</i>
   <i type="int" name="KBLOCK">     1</i>
   <i type="int" name="NPACO">   256</i>
   <i name="APACO">     16.00000000</i>
  </separator>
  <separator name="symmetry" >
   <i type="int" name="ISYM">     2</i>
   <i name="SYMPREC">      0.00001000</i>
  </separator>
  <separator name="dos" >
   <i type="int" name="LORBIT">     0</i>
   <v name="RWIGS">     -1.00000000     -1.00000000</v>
   <i type="int" name="NEDOS">   301</i>
   <i name="EMIN">     10.00000000</i>
   <i name="EMAX">    -10.00000000</i>
   <i name="EFERMI">      0.00000000</i>
  </separator>
  <separator name="writing" >
   <i type="int" name="NWRITE">     2</i>
   <i type="logical" name="LWAVE"> F  </i>
   <i type="logical" name="LDOWNSAMPLE"> F  </i>
   <i type="logical" name="LCHARG"> T  </i>
   <i type="logical" name="LPARD"> F  </i>
   <i type="logical" name="LVTOT"> F  </i>
   <i type="logical" name="LVHAR"> F  </i>
   <i type="logical" name="LELF"> F  </i>
   <i type="logical" name="LOPTICS"> F  </i>
   <v name="STM">      0.00000000      0.00000000      0.00000000      0.00000000      0.00000000      0.00000000      0.00000000</v>
  </separator>
  <separator name="performance" >
   <i type="int" name="NPAR">     2</i>
   <i type="int" name="NSIM">     4</i>
   <i type="int" name="NBLK">    -1</i>
   <i type="logical" name="LPLANE"> T  </i>
   <i type="logical" name="LSCALAPACK"> T  </i>
   <i type="logical" name="LSCAAWARE"> F  </i>
   <i type="logical" name="LSCALU"> F  </i>
   <i type="logical" name="LASYNC"> F  </i>
   <i type="logical" name="LORBITALREAL"> F  </i>
  </separator>
  <separator name="miscellaneous" >
   <i type="int" name="IDIOT">     3</i>
   <i type="int" name="ISPECIAL">     0</i>
   <i type="logical" name="LMUSIC"> F  </i>
   <v name="POMASS">     28.08500000     16.00000000</v>
   <v name="DARWINR">      0.00000000      0.00000000</v>
   <v name="DARWINV">      1.00000000      1.00000000</v>
   <i type="logical" name="LCORR"> T  </i>
  </separator>
  <i type="logical" name="GGA_COMPAT"> T  </i>
  <i type="logical" name="LBERRY"> F  </i>
  <i type="int" name="ICORELEVEL">     0</i>
  <i type="logical" name="LDAU"> F  </i>
  <i type="int" name="I_CONSTRAINED_M">     0</i>
  <separator name="electronic exchange-correlation" >
   <i type="string" name="GGA">--</i>
   <i type="int" name="VOSKOWN">     0</i>
   <i type="logical" name="LHFCALC"> F  </i>
   <i type="string" name="PRECFOCK"></i>
   <i type="logical" name="LSYMGRAD"> F  </i>
   <i type="logical" name="LHFONE"> F  </i>
   <i type="logical" name="LRHFCALC"> F  </i>
   <i type="logical" name="LTHOMAS"> F  </i>
   <i type="logical" name="LMODELHF"> F  </i>
   <i name="ENCUT4O">     -1.00000000</i>
   <i type="int" name="EXXOEP">     0</i>
   <i type="int" name="FOURORBIT">     0</i>
   <i name="AEXX">      0.00000000</i>
   <i name="HFALPHA">      0.00000000</i>
   <i name="MCALPHA">      0.00000000</i>
   <i name="ALDAX">      1.00000000</i>
   <i name="AGGAX">      1.00000000</i>
   <i name="ALDAC">      1.00000000</i>
   <i name="AGGAC">      1.00000000</i>
   <i type="int" name="NKREDX">     1</i>
   <i type="int" name="NKREDY">     1</i>
   <i type="int" name="NKREDZ">     1</i>
   <i type="logical" name="SHIFTRED"> F  </i>
   <i type="logical" name="ODDONLY"> F  </i>
   <i type="logical" name="EVENONLY"> F  </i>
   <i type="int" name="LMAXFOCK">     0</i>
   <i type="int" name="NMAXFOCKAE">     0</i>
   <i type="logical" name="LFOCKAEDFT"> F  </i>
   <i name="HFSCREEN">      0.00000000</i>
   <i name="HFSCREENC">      0.00000000</i>
   <i type="int" name="NBANDSGWLOW">     0</i>
  </separator>
  <separator name="vdW DFT" >
   <i type="logical" name="LUSE_VDW"> F  </i>
   <i name="Zab_VDW">     -0.84910000</i>
   <i name="PARAM1">      0.12340000</i>
   <i name="PARAM2">      1.00000000</i>
   <i name="PARAM3">      0.00000000</i>
  </separator>
  <separator name="model GW" >
   <i type="int" name="MODEL_GW">     0</i>
   <i name="MODEL_EPS0">      7.53504921</i>
   <i name="MODEL_ALPHA">      1.00000000</i>
  </separator>
  <separator name="linear response parameters" >
   <i type="logical" name="LEPSILON"> F  </i>
   <i type="logical" name="LRPA"> F  </i>
   <i type="logical" name="LNABLA"> F  </i>
   <i type="logical" name="LVEL"> F  </i>
   <i type="int" name="KINTER">     0</i>
   <i name="CSHIFT">      0.10000000</i>
   <i name="OMEGAMAX">     -1.00000000</i>
   <i name="DEG_THRESHOLD">      0.00200000</i>
   <i name="RTIME">     -0.10000000</i>
   <i name="WPLASMAI">      0.00000000</i>
   <v name="DFIELD">      0.00000000      0.00000000      0.00000000</v>
   <v name="WPLASMA">      0.00000000      0.00000000      0.00000000      0.00000000      0.00000000      0.00000000      0.00000000      0.00000000      0.00000000</v>
  </separator>
  <separator name="orbital magnetization" >
   <i type="logical" name="NUCIND"> F  </i>
   <v name="MAGPOS">      0.00000000      0.00000000      0.00000000</v>
   <i type="logical" name="LNICSALL"> T  </i>
   <i type="logical" name="ORBITALMAG"> F  </i>
   <i type="logical" name="LMAGBLOCH"> F  </i>
   <i type="logical" name="LCHIMAG"> F  </i>
   <i type="logical" name="LGAUGE"> T  </i>
   <i type="int" name="MAGATOM">     0</i>
   <v name="MAGDIPOL">      0.00000000      0.00000000      0.00000000</v>
   <v name="AVECCONST">      0.00000000      0.00000000      0.00000000</v>
  </separator>
  <separator name="response functions" >
   <i type="logical" name="LADDER"> F  </i>
   <i type="logical" name="LRPAFORCE"> F  </i>
   <i type="logical" name="LFXC"> F  </i>
   <i type="logical" name="LHARTREE"> T  </i>
   <i type="int" name="IBSE">     0</i>
   <v type="int" name="KPOINT">    -1     0     0     0</v>
   <i type="logical" name="LTCTE"> F  </i>
   <i type="logical" name="LTETE"> F  </i>
   <i type="logical" name="LTRIPLET"> F  </i>
   <i type="logical" name="LFXCEPS"> F  </i>
   <i type="logical" name="LFXHEG"> F  </i>
   <i type="int" name="NATURALO">     2</i>
   <i type="logical" name="L2ORDER"> F  </i>
   <i type="logical" name="LMP2LT"> F  </i>
   <i type="logical" name="LUSEW"> F  </i>
   <i name="ENCUTGW">     -2.00000000</i>
   <i name="ENCUTGWSOFT">     -2.00000000</i>
   <i name="ENCUTLF">     -1.00000000</i>
   <i type="int" name="LMAXMP2">    -1</i>
   <i name="SCISSOR">      0.00000000</i>
   <i type="int" name="NOMEGA">     0</i>
   <i type="int" name="NOMEGAR">     0</i>
   <i type="int" name="NBANDSGW">    -1</i>
   <i type="int" name="NBANDSO">    -1</i>
   <i type="int" name="NBANDSV">    -1</i>
   <i type="int" name="NELM">     1</i>
   <i type="int" name="NELMHF">     1</i>
   <i type="int" name="DIM">     3</i>
   <i type="int" name="ANTIRES">     0</i>
   <i name="OMEGAMAX">    -30.00000000</i>
   <i name="OMEGAMIN">    -30.00000000</i>
   <i name="OMEGATL">   -200.00000000</i>
   <i type="int" name="OMEGAGRID">   140</i>
   <i name="CSHIFT">     -0.10000000</i>
   <i type="logical" name="SELFENERGY"> F  </i>
   <i type="logical" name="LSPECTRAL"> F  </i>
   <i type="logical" name="LSPECTRALGW"> F  </i>
   <i type="logical" name="LSINGLES"> F  </i>
   <i type="logical" name="LFERMIGW"> F  </i>
   <i type="logical" name="ODDONLYGW"> F  </i>
   <i type="logical" name="EVENONLYGW"> F  </i>
   <i type="int" name="NKREDLFX">     1</i>
   <i type="int" name="NKREDLFY">     1</i>
   <i type="int" name="NKREDLFZ">     1</i>
   <i type="int" name="MAXMEM">  2800</i>
   <i type="int" name="TELESCOPE">     0</i>
   <i type="int" name="TAUPAR">     1</i>
   <i type="int" name="OMEGAPAR">    -1</i>
   <i name="LAMBDA">      1.00000000</i>
  </separator>
  <separator name="External order field" >
   <i name="OFIELD_KAPPA">      0.00000000</i>
   <v name="OFIELD_K">      0.00000000      0.00000000      0.00000000</v>
   <i name="OFIELD_Q6_NEAR">      0.00000000</i>
   <i name="OFIELD_Q6_FAR">      0.00000000</i>
   <i name="OFIELD_A">      0.00000000</i>
  </separator>
 </parameters>
 <atominfo>
  <atoms>       9 </atoms>
  <types>       2 </types>
  <array name="atoms" >
   <dimension dim="1">ion</dimension>
   <field type="string">element</field>
   <field type="int">atomtype</field>
   <set>
    <rc><c>Si</c><c>   1</c></rc>
    <rc><c>Si</c><c>   1</c></rc>
    <rc><c>Si</c><c>   1</c></rc>
    <rc><c>O </c><c>   2</c></rc>
    <rc><c>O </c><c>   2</c></rc>
    <rc><c>O </c><c>   2</c></rc>
    <rc><c>O </c><c>   2</c></rc>
    <rc><c>O </c><c>   2</c></rc>
    <rc><c>O </c><c>   2</c></rc>
   </set>
  </array>
  <array name="atomtypes" >
   <dimension dim="1">type</dimension>
   <field type="int">atomspertype</field>
   <field type="string">element</field>
   <field>mass</field>
   <field>valence</field>
   <field type="string">pseudopotential</field>
   <set>
    <rc><c>   3</c><c>Si</c><c>     28.08500000</c><c>      4.00000000</c><c> PAW_PBE Si 05Jan2001                   </c></rc>
    <rc><c>   6</c><c>O </c><c>     16.00000000</c><c>      6.00000000</c><c> PAW_PBE O 08Apr2002                    </c></rc>
   </set>
  </array>
 </atominfo>
 <structure name="initialpos" >
  <crystal>
   <varray name="basis" >
    <v>       4.91380000       0.00000000       0.00000000 </v>
    <v>      -2.45690000       4.25547563       0.00000000 </v>
    <v>       0.00000000       0.00000000       5.40520000 </v>
   </varray>
   <i name="volume">    113.02573808 </i>
   <varray name="rec_basis" >
    <v>       0.20350849       0.11749568       0.00000000 </v>
    <v>       0.00000000       0.23499136       0.00000000 </v>
    <v>       0.00000000       0.00000000       0.18500703 </v>
   </varray>
  </crystal>
  <varray name="positions" >
   <v>       0.46980000       0.00000000       0.66666667 </v>
   <v>       0.53020000       0.53020000       0.00000000 </v>
   <v>       0.00000000       0.46980000       0.33333333 </v>
   <v>       0.41450000       0.26620000       0.78560000 </v>
   <v>       0.58550000       0.85170000       0.88106667 </v>
   <v>       0.14830000       0.73380000       0.54773333 </v>
   <v>       0.26620000       0.41450000       0.21440000 </v>
   <v>       0.85170000       0.58550000       0.11893333 </v>
   <v>       0.73380000       0.14830000       0.45226667 </v>
  </varray>
 </structure>
 <calculation>
  <scstep>
   <time name="dav">    1.00    1.28</time>
   <time name="total">    1.04    1.98</time>
   <energy>
    <i name="alphaZ">     69.72428684 </i>
    <i name="ewald">  -1887.17190222 </i>
    <i name="hartreedc">   -937.16683992 </i>
    <i name="XCdc">    142.01201969 </i>
    <i name="pawpsdc">   1574.92322788 </i>
    <i name="pawaedc">  -1533.24131965 </i>
    <i name="eentropy">      0.00000000 </i>
    <i name="bandstr">    -63.00768973 </i>
    <i name="atom">   2902.77641490 </i>
    <i name="e_fr_energy">    268.84819780 </i>
    <i name="e_wo_entrp">    268.84819780 </i>
    <i name="e_0_energy">    268.84819780 </i>
   </energy>
  </scstep>
  <scstep>
   <time name="dav">    1.22    1.23</time>
   <time name="total">    1.22    1.23</time>
   <energy>
    <i name="e_fr_energy">    -63.56385847 </i>
    <i name="e_wo_entrp">    -63.56385847 </i>
    <i name="e_0_energy">    -63.56385847 </i>
   </energy>
  </scstep>
  <scstep>
   <time name="dav">    1.14    1.15</time>
   <time name="total">    1.15    1.15</time>
   <energy>
    <i name="e_fr_energy">    -80.35834973 </i>
    <i name="e_wo_entrp">    -80.35834973 </i>
    <i name="e_0_energy">    -80.35834973 </i>
   </energy>
  </scstep>
  <scstep>
   <time name="dav">    1.13    1.14</time>
   <time name="total">    1.13    1.14</time>
   <energy>
    <i name="e_fr_energy">    -80.55543819 </i>
    <i name="e_wo_entrp">    -80.55543819 </i>
    <i name="e_0_energy">    -80.55543819 </i>
   </energy>
  </scstep>
  <scstep>
   <time name="dav">    1.12    1.12</time>
   <time name="total">    1.18    1.19</time>
   <energy>
    <i name="e_fr_energy">    -80.55918045 </i>
    <i name="e_wo_entrp">    -80.55918045 </i>
    <i name="e_0_energy">    -80.55918045 </i>
   </energy>
  </scstep>
  <scstep>
   <time name="diag">    0.22    0.23</time>
   <time name="diis">    0.59    0.60</time>
   <time name="orth">    0.03    0.03</time>
   <time name="total">    0.93    0.95</time>
   <energy>
    <i name="e_fr_energy">    -71.16783522 </i>
    <i name="e_wo_entrp">    -71.16783522 </i>
    <i name="e_0_energy">    -71.16783522 </i>
   </energy>
  </scstep>
  <scstep>
   <time name="diag">    0.22    0.22</time>
   <time name="diis">    0.64    0.64</time>
   <time name="orth">    0.03    0.03</time>
   <time name="total">    0.97    0.97</time>
   <energy>
    <i name="e_fr_energy">    -71.13544278 </i>
    <i name="e_wo_entrp">    -71.13544278 </i>
    <i name="e_0_energy">    -71.13544278 </i>
   </energy>
  </scstep>
  <scstep>
   <time name="diag">    0.22    0.22</time>
   <time name="diis">    0.63    0.63</time>
   <time name="orth">    0.03    0.03</time>
   <time name="total">    0.96    1.01</time>
   <energy>
    <i name="e_fr_energy">    -71.15105921 </i>
    <i name="e_wo_entrp">    -71.15105921 </i>
    <i name="e_0_energy">    -71.15105921 </i>
   </energy>
  </scstep>
  <scstep>
   <time name="diag">    0.22    0.22</time>
   <time name="diis">    0.65    0.65</time>
   <time name="orth">    0.03    0.03</time>
   <time name="total">    0.98    0.99</time>
   <energy>
    <i name="e_fr_energy">    -71.14400927 </i>
    <i name="e_wo_entrp">    -71.14400927 </i>
    <i name="e_0_energy">    -71.14400927 </i>
   </energy>
  </scstep>
  <scstep>
   <time name="diag">    0.22    0.22</time>
   <time name="diis">    0.64    0.65</time>
   <time name="orth">    0.03    0.03</time>
   <time name="total">    0.97    0.98</time>
   <energy>
    <i name="e_fr_energy">    -71.14700846 </i>
    <i name="e_wo_entrp">    -71.14700846 </i>
    <i name="e_0_energy">    -71.14700846 </i>
   </energy>
  </scstep>
  <scstep>
   <time name="diag">    0.22    0.22</time>
   <time name="diis">    0.65    0.65</time>
   <time name="orth">    0.03    0.03</time>
   <time name="total">    0.99    0.99</time>
   <energy>
    <i name="e_fr_energy">    -71.14572385 </i>
    <i name="e_wo_entrp">    -71.14572385 </i>
    <i name="e_0_energy">    -71.14572385 </i>
   </energy>
  </scstep>
  <scstep>
   <time name="diag">    0.22    0.22</time>
   <time name="diis">    0.64    0.65</time>
   <time name="orth">    0.03    0.03</time>
   <time name="total">    0.98    0.98</time>
   <energy>
    <i name="e_fr_energy">    -71.14566105 </i>
    <i name="e_wo_entrp">    -71.14566105 </i>
    <i name="e_0_energy">    -71.14566105 </i>
   </energy>
  </scstep>
  <scstep>
   <time name="diag">    0.22    0.22</time>
   <time name="diis">    0.49    0.50</time>
   <time name="orth">    0.03    0.03</time>
   <time name="total">    0.77    0.77</time>
   <energy>
    <i name="alphaZ">     69.72428684 </i>
    <i name="ewald">  -1887.17190222 </i>
    <i name="hartreedc">  -1070.76487267 </i>
    <i name="XCdc">    151.09141851 </i>
    <i name="pawpsdc">   2074.39546144 </i>
    <i name="pawaedc">  -2034.95675634 </i>
    <i name="eentropy">      0.00000000 </i>
    <i name="bandstr">   -276.23971330 </i>
    <i name="atom">   2902.77641490 </i>
    <i name="e_fr_energy">    -71.14566284 </i>
    <i name="e_wo_entrp">    -71.14566284 </i>
    <i name="e_0_energy">    -71.14566284 </i>
   </energy>
  </scstep>
  <structure>
   <crystal>
    <varray name="basis" >
     <v>       4.91380000       0.00000000       0.00000000 </v>
     <v>      -2.45690000       4.25547563       0.00000000 </v>
     <v>       0.00000000       0.00000000       5.40520000 </v>
    </varray>
    <i name="volume">    113.02573808 </i>
    <varray name="rec_basis" >
     <v>       0.20350849       0.11749568       0.00000000 </v>
     <v>       0.00000000       0.23499136       0.00000000 </v>
     <v>       0.00000000       0.00000000       0.18500703 </v>
    </varray>
   </crystal>
   <varray name="positions" >
    <v>       0.46980000       0.00000000       0.66666667 </v>
    <v>       0.53020000       0.53020000       0.00000000 </v>
    <v>       0.00000000       0.46980000       0.33333333 </v>
    <v>       0.41450000       0.26620000       0.78560000 </v>
    <v>       0.58550000       0.85170000       0.88106667 </v>
    <v>       0.14830000       0.73380000       0.54773333 </v>
    <v>       0.26620000       0.41450000       0.21440000 </v>
    <v>       0.85170000       0.58550000       0.11893333 </v>
    <v>       0.73380000       0.14830000       0.45226667 </v>
   </varray>
  </structure>
  <varray name="forces" >
   <v>       0.40253567       0.00000000      -0.00000000 </v>
   <v>      -0.20126783      -0.34860611       0.00000000 </v>
   <v>      -0.20126783       0.34860611       0.00000000 </v>
   <v>      -0.52508972       0.28989532       0.06663332 </v>
   <v>       0.01148815       0.59968869      -0.06663332 </v>
   <v>      -0.52508972      -0.28989532      -0.06663332 </v>
   <v>       0.51360157      -0.30979337      -0.06663332 </v>
   <v>       0.51360157       0.30979337       0.06663332 </v>
   <v>       0.01148815      -0.59968869       0.06663332 </v>
  </varray>
  <varray name="stress" >
   <v>      38.17446430      -0.00000000       0.00000000 </v>
   <v>      -0.00000000      38.17446430      -0.00000000 </v>
   <v>       0.00000000      -0.00000000      23.47533057 </v>
  </varray>
  <energy>
   <i name="e_fr_energy">    -71.14566284 </i>
   <i name="e_wo_entrp">    -71.14566284 </i>
   <i name="e_0_energy">      0.00000000 </i>
  </energy>
  <time name="totalsc">   14.78   20.15</time>
  <eigenvalues>
   <array>
    <dimension dim="1">band</dimension>
    <dimension dim="2">kpoint</dimension>
    <dimension dim="3">spin</dimension>
    <field>eigene</field>
    <field>occ</field>
    <set>
     <set comment="spin 1">
      <set comment="kpoint 1">
       <r>  -18.3771    1.0000 </r>
       <r>  -16.8411    1.0000 </r>
       <r>  -16.8410    1.0000 </r>
       <r>  -16.2070    1.0000 </r>
       <r>  -16.1591    1.0000 </r>
       <r>  -16.1591    1.0000 </r>
       <r>   -7.1840    1.0000 </r>
       <r>   -7.1840    1.0000 </r>
       <r>   -4.3432    1.0000 </r>
       <r>   -4.3376    1.0000 </r>
       <r>   -4.1846    1.0000 </r>
       <r>   -4.1845    1.0000 </r>
       <r>   -1.8638    1.0000 </r>
       <r>   -1.8637    1.0000 </r>
       <r>   -1.6260    1.0000 </r>
       <r>   -1.3660    1.0000 </r>
       <r>   -0.4151    1.0000 </r>
       <r>   -0.4140    1.0000 </r>
       <r>   -0.3971    1.0000 </r>
       <r>    0.1077    1.0000 </r>
       <r>    0.1082    1.0000 </r>
       <r>    0.4170    1.0000 </r>
       <r>    0.7579    1.0000 </r>
       <r>    0.7580    1.0000 </r>
       <r>    7.1144    0.0000 </r>
       <r>   10.4019    0.0000 </r>
       <r>   10.4022    0.0000 </r>
       <r>   10.9038    0.0000 </r>
       <r>   10.9040    0.0000 </r>
       <r>   12.3615    0.0000 </r>
      </set>
      <set comment="kpoint 2">
       <r>  -18.2962    1.0000 </r>
       <r>  -16.9361    1.0000 </r>
       <r>  -16.8298    1.0000 </r>
       <r>  -16.2278    1.0000 </r>
       <r>  -16.1772    1.0000 </r>
       <r>  -16.1663    1.0000 </r>
       <r>   -7.2219    1.0000 </r>
       <r>   -7.0030    1.0000 </r>
       <r>   -4.3835    1.0000 </r>
       <r>   -4.3581    1.0000 </r>
       <r>   -4.2865    1.0000 </r>
       <r>   -4.0249    1.0000 </r>
       <r>   -1.9897    1.0000 </r>
       <r>   -1.8047    1.0000 </r>
       <r>   -1.5977    1.0000 </r>
       <r>   -1.2010    1.0000 </r>
       <r>   -0.6894    1.0000 </r>
       <r>   -0.4550    1.0000 </r>
       <r>   -0.4098    1.0000 </r>
       <r>    0.0425    1.0000 </r>
       <r>    0.0948    1.0000 </r>
       <r>    0.3128    1.0000 </r>
       <r>    0.8204    1.0000 </r>
       <r>    0.8532    1.0000 </r>
       <r>    7.5372    0.0000 </r>
       <r>   10.3876    0.0000 </r>
       <r>   10.4474    0.0000 </r>
       <r>   10.9382    0.0000 </r>
       <r>   11.0467    0.0000 </r>
       <r>   12.2939    0.0000 </r>
      </set>
      <set comment="kpoint 3">
       <r>  -18.0782    1.0000 </r>
       <r>  -17.1956    1.0000 </r>
       <r>  -16.8046    1.0000 </r>
       <r>  -16.2515    1.0000 </r>
       <r>  -16.2059    1.0000 </r>
       <r>  -16.1863    1.0000 </r>
       <r>   -7.2937    1.0000 </r>
       <r>   -6.5838    1.0000 </r>
       <r>   -4.6404    1.0000 </r>
       <r>   -4.3917    1.0000 </r>
       <r>   -4.3103    1.0000 </r>
       <r>   -3.7237    1.0000 </r>
       <r>   -2.0727    1.0000 </r>
       <r>   -1.6973    1.0000 </r>
       <r>   -1.5728    1.0000 </r>
       <r>   -1.2052    1.0000 </r>
       <r>   -1.0071    1.0000 </r>
       <r>   -0.5878    1.0000 </r>
       <r>   -0.4959    1.0000 </r>
       <r>   -0.0103    1.0000 </r>
       <r>    0.0595    1.0000 </r>
       <r>    0.2631    1.0000 </r>
       <r>    0.8468    1.0000 </r>
       <r>    0.9955    1.0000 </r>
       <r>    8.5372    0.0000 </r>
       <r>   10.4291    0.0000 </r>
       <r>   10.5568    0.0000 </r>
       <r>   11.0589    0.0000 </r>
       <r>   11.3982    0.0000 </r>
       <r>   11.7511    0.0000 </r>
      </set>
      <set comment="kpoint 4">
       <r>  -17.8890    1.0000 </r>
       <r>  -17.4101    1.0000 </r>
       <r>  -16.7907    1.0000 </r>
       <r>  -16.2572    1.0000 </r>
       <r>  -16.2181    1.0000 </r>
       <r>  -16.1976    1.0000 </r>
       <r>   -7.3280    1.0000 </r>
       <r>   -6.3212    1.0000 </r>
       <r>   -4.8292    1.0000 </r>
       <r>   -4.3688    1.0000 </r>
       <r>   -4.3380    1.0000 </r>
       <r>   -3.5577    1.0000 </r>
       <r>   -2.0007    1.0000 </r>
       <r>   -1.8353    1.0000 </r>
       <r>   -1.6033    1.0000 </r>
       <r>   -1.2217    1.0000 </r>
       <r>   -1.0153    1.0000 </r>
       <r>   -0.6699    1.0000 </r>
       <r>   -0.6033    1.0000 </r>
       <r>   -0.0119    1.0000 </r>
       <r>    0.0530    1.0000 </r>
       <r>    0.2931    1.0000 </r>
       <r>    0.8308    1.0000 </r>
       <r>    1.0538    1.0000 </r>
       <r>    9.3753    0.0000 </r>
       <r>   10.1156    0.0000 </r>
       <r>   10.8446    0.0000 </r>
       <r>   10.8457    0.0000 </r>
       <r>   11.6292    0.0000 </r>
       <r>   11.7016    0.0000 </r>
      </set>
      <set comment="kpoint 5">
       <r>  -18.1435    1.0000 </r>
       <r>  -17.1116    1.0000 </r>
       <r>  -16.8183    1.0000 </r>
       <r>  -16.2454    1.0000 </r>
       <r>  -16.2031    1.0000 </r>
       <r>  -16.1755    1.0000 </r>
       <r>   -7.2857    1.0000 </r>
       <r>   -6.6774    1.0000 </r>
       <r>   -4.6471    1.0000 </r>
       <r>   -4.3765    1.0000 </r>
       <r>   -4.2350    1.0000 </r>
       <r>   -3.8125    1.0000 </r>
       <r>   -2.0392    1.0000 </r>
       <r>   -1.7913    1.0000 </r>
       <r>   -1.4928    1.0000 </r>
       <r>   -1.0917    1.0000 </r>
       <r>   -1.0837    1.0000 </r>
       <r>   -0.5651    1.0000 </r>
       <r>   -0.3665    1.0000 </r>
       <r>   -0.1352    1.0000 </r>
       <r>    0.1786    1.0000 </r>
       <r>    0.2237    1.0000 </r>
       <r>    0.8390    1.0000 </r>
       <r>    0.9740    1.0000 </r>
       <r>    8.2466    0.0000 </r>
       <r>   10.4297    0.0000 </r>
       <r>   10.5712    0.0000 </r>
       <r>   11.0560    0.0000 </r>
       <r>   11.2268    0.0000 </r>
       <r>   11.9621    0.0000 </r>
      </set>
      <set comment="kpoint 6">
       <r>  -17.8956    1.0000 </r>
       <r>  -17.3905    1.0000 </r>
       <r>  -16.8110    1.0000 </r>
       <r>  -16.2542    1.0000 </r>
       <r>  -16.2171    1.0000 </r>
       <r>  -16.1945    1.0000 </r>
       <r>   -7.3511    1.0000 </r>
       <r>   -6.2215    1.0000 </r>
       <r>   -5.0478    1.0000 </r>
       <r>   -4.3290    1.0000 </r>
       <r>   -4.2375    1.0000 </r>
       <r>   -3.5655    1.0000 </r>
       <r>   -1.9894    1.0000 </r>
       <r>   -1.7902    1.0000 </r>
       <r>   -1.6638    1.0000 </r>
       <r>   -1.1698    1.0000 </r>
       <r>   -1.0079    1.0000 </r>
       <r>   -0.7016    1.0000 </r>
       <r>   -0.5128    1.0000 </r>
       <r>   -0.1945    1.0000 </r>
       <r>    0.0254    1.0000 </r>
       <r>    0.4183    1.0000 </r>
       <r>    0.7966    1.0000 </r>
       <r>    1.0651    1.0000 </r>
       <r>    9.2635    0.0000 </r>
       <r>   10.3670    0.0000 </r>
       <r>   10.6853    0.0000 </r>
       <r>   11.0898    0.0000 </r>
       <r>   11.5000    0.0000 </r>
       <r>   11.7095    0.0000 </r>
      </set>
      <set comment="kpoint 7">
       <r>  -17.6441    1.0000 </r>
       <r>  -17.6441    1.0000 </r>
       <r>  -16.8261    1.0000 </r>
       <r>  -16.2531    1.0000 </r>
       <r>  -16.2101    1.0000 </r>
       <r>  -16.2101    1.0000 </r>
       <r>   -7.3890    1.0000 </r>
       <r>   -5.6512    1.0000 </r>
       <r>   -5.6512    1.0000 </r>
       <r>   -4.2476    1.0000 </r>
       <r>   -4.2475    1.0000 </r>
       <r>   -3.4718    1.0000 </r>
       <r>   -1.8610    1.0000 </r>
       <r>   -1.8608    1.0000 </r>
       <r>   -1.8089    1.0000 </r>
       <r>   -0.9840    1.0000 </r>
       <r>   -0.9840    1.0000 </r>
       <r>   -0.8282    1.0000 </r>
       <r>   -0.6315    1.0000 </r>
       <r>   -0.1530    1.0000 </r>
       <r>   -0.1525    1.0000 </r>
       <r>    0.6531    1.0000 </r>
       <r>    0.6536    1.0000 </r>
       <r>    1.0938    1.0000 </r>
       <r>   10.0489    0.0000 </r>
       <r>   10.0490    0.0000 </r>
       <r>   10.5396    0.0000 </r>
       <r>   11.4779    0.0000 </r>
       <r>   11.6398    0.0000 </r>
       <r>   11.8902    0.0000 </r>
      </set>
      <set comment="kpoint 8">
       <r>  -18.2997    1.0000 </r>
       <r>  -17.2901    1.0000 </r>
       <r>  -16.4578    1.0000 </r>
       <r>  -16.2055    1.0000 </r>
       <r>  -16.1753    1.0000 </r>
       <r>  -16.1454    1.0000 </r>
       <r>   -7.8568    1.0000 </r>
       <r>   -6.3575    1.0000 </r>
       <r>   -4.5035    1.0000 </r>
       <r>   -4.4257    1.0000 </r>
       <r>   -4.3788    1.0000 </r>
       <r>   -3.8802    1.0000 </r>
       <r>   -1.9475    1.0000 </r>
       <r>   -1.6708    1.0000 </r>
       <r>   -1.5696    1.0000 </r>
       <r>   -1.2370    1.0000 </r>
       <r>   -0.6101    1.0000 </r>
       <r>   -0.4885    1.0000 </r>
       <r>   -0.4288    1.0000 </r>
       <r>   -0.2883    1.0000 </r>
       <r>    0.0743    1.0000 </r>
       <r>    0.5165    1.0000 </r>
       <r>    0.8066    1.0000 </r>
       <r>    0.9666    1.0000 </r>
       <r>    7.5087    0.0000 </r>
       <r>   10.2562    0.0000 </r>
       <r>   10.4223    0.0000 </r>
       <r>   10.5259    0.0000 </r>
       <r>   11.2283    0.0000 </r>
       <r>   12.1639    0.0000 </r>
      </set>
      <set comment="kpoint 9">
       <r>  -18.2225    1.0000 </r>
       <r>  -17.2893    1.0000 </r>
       <r>  -16.5408    1.0000 </r>
       <r>  -16.2208    1.0000 </r>
       <r>  -16.1948    1.0000 </r>
       <r>  -16.1565    1.0000 </r>
       <r>   -7.7120    1.0000 </r>
       <r>   -6.3656    1.0000 </r>
       <r>   -4.6814    1.0000 </r>
       <r>   -4.3854    1.0000 </r>
       <r>   -4.1893    1.0000 </r>
       <r>   -3.9299    1.0000 </r>
       <r>   -2.0482    1.0000 </r>
       <r>   -1.6542    1.0000 </r>
       <r>   -1.5339    1.0000 </r>
       <r>   -1.1592    1.0000 </r>
       <r>   -0.8392    1.0000 </r>
       <r>   -0.5034    1.0000 </r>
       <r>   -0.4000    1.0000 </r>
       <r>   -0.2445    1.0000 </r>
       <r>    0.1565    1.0000 </r>
       <r>    0.4119    1.0000 </r>
       <r>    0.7468    1.0000 </r>
       <r>    1.0086    1.0000 </r>
       <r>    7.8854    0.0000 </r>
       <r>   10.2708    0.0000 </r>
       <r>   10.5135    0.0000 </r>
       <r>   10.6085    0.0000 </r>
       <r>   11.3031    0.0000 </r>
       <r>   11.9958    0.0000 </r>
      </set>
      <set comment="kpoint 10">
       <r>  -18.0208    1.0000 </r>
       <r>  -17.3301    1.0000 </r>
       <r>  -16.7268    1.0000 </r>
       <r>  -16.2492    1.0000 </r>
       <r>  -16.2214    1.0000 </r>
       <r>  -16.1761    1.0000 </r>
       <r>   -7.4191    1.0000 </r>
       <r>   -6.3376    1.0000 </r>
       <r>   -4.9173    1.0000 </r>
       <r>   -4.3442    1.0000 </r>
       <r>   -4.1086    1.0000 </r>
       <r>   -3.8341    1.0000 </r>
       <r>   -2.1435    1.0000 </r>
       <r>   -1.7172    1.0000 </r>
       <r>   -1.4799    1.0000 </r>
       <r>   -1.2173    1.0000 </r>
       <r>   -0.9015    1.0000 </r>
       <r>   -0.6084    1.0000 </r>
       <r>   -0.4976    1.0000 </r>
       <r>   -0.0597    1.0000 </r>
       <r>    0.1558    1.0000 </r>
       <r>    0.2754    1.0000 </r>
       <r>    0.7886    1.0000 </r>
       <r>    0.9632    1.0000 </r>
       <r>    8.8027    0.0000 </r>
       <r>   10.3215    0.0000 </r>
       <r>   10.5735    0.0000 </r>
       <r>   11.0362    0.0000 </r>
       <r>   11.4108    0.0000 </r>
       <r>   11.6618    0.0000 </r>
      </set>
      <set comment="kpoint 11">
       <r>  -17.8663    1.0000 </r>
       <r>  -17.3986    1.0000 </r>
       <r>  -16.8376    1.0000 </r>
       <r>  -16.2578    1.0000 </r>
       <r>  -16.2225    1.0000 </r>
       <r>  -16.1887    1.0000 </r>
       <r>   -7.2804    1.0000 </r>
       <r>   -6.2820    1.0000 </r>
       <r>   -5.0535    1.0000 </r>
       <r>   -4.3653    1.0000 </r>
       <r>   -4.1136    1.0000 </r>
       <r>   -3.6804    1.0000 </r>
       <r>   -2.0525    1.0000 </r>
       <r>   -1.9526    1.0000 </r>
       <r>   -1.4761    1.0000 </r>
       <r>   -1.2669    1.0000 </r>
       <r>   -0.8514    1.0000 </r>
       <r>   -0.7314    1.0000 </r>
       <r>   -0.4276    1.0000 </r>
       <r>   -0.0785    1.0000 </r>
       <r>    0.1348    1.0000 </r>
       <r>    0.3275    1.0000 </r>
       <r>    0.7178    1.0000 </r>
       <r>    0.9935    1.0000 </r>
       <r>    9.5692    0.0000 </r>
       <r>   10.1819    0.0000 </r>
       <r>   10.6885    0.0000 </r>
       <r>   11.1565    0.0000 </r>
       <r>   11.5860    0.0000 </r>
       <r>   11.8894    0.0000 </r>
      </set>
      <set comment="kpoint 12">
       <r>  -18.0248    1.0000 </r>
       <r>  -17.3097    1.0000 </r>
       <r>  -16.7609    1.0000 </r>
       <r>  -16.2409    1.0000 </r>
       <r>  -16.1998    1.0000 </r>
       <r>  -16.1878    1.0000 </r>
       <r>   -7.4229    1.0000 </r>
       <r>   -6.3390    1.0000 </r>
       <r>   -4.9190    1.0000 </r>
       <r>   -4.3831    1.0000 </r>
       <r>   -4.0853    1.0000 </r>
       <r>   -3.7848    1.0000 </r>
       <r>   -2.0797    1.0000 </r>
       <r>   -1.7096    1.0000 </r>
       <r>   -1.5332    1.0000 </r>
       <r>   -1.3954    1.0000 </r>
       <r>   -0.9321    1.0000 </r>
       <r>   -0.5068    1.0000 </r>
       <r>   -0.3531    1.0000 </r>
       <r>   -0.0958    1.0000 </r>
       <r>    0.0579    1.0000 </r>
       <r>    0.3900    1.0000 </r>
       <r>    0.6317    1.0000 </r>
       <r>    1.0561    1.0000 </r>
       <r>    8.7682    0.0000 </r>
       <r>   10.3819    0.0000 </r>
       <r>   10.7681    0.0000 </r>
       <r>   11.1815    0.0000 </r>
       <r>   11.3634    0.0000 </r>
       <r>   11.7479    0.0000 </r>
      </set>
      <set comment="kpoint 13">
       <r>  -18.2229    1.0000 </r>
       <r>  -17.2853    1.0000 </r>
       <r>  -16.5522    1.0000 </r>
       <r>  -16.2194    1.0000 </r>
       <r>  -16.1842    1.0000 </r>
       <r>  -16.1606    1.0000 </r>
       <r>   -7.7132    1.0000 </r>
       <r>   -6.3659    1.0000 </r>
       <r>   -4.6859    1.0000 </r>
       <r>   -4.3867    1.0000 </r>
       <r>   -4.2031    1.0000 </r>
       <r>   -3.9016    1.0000 </r>
       <r>   -2.0215    1.0000 </r>
       <r>   -1.6714    1.0000 </r>
       <r>   -1.5285    1.0000 </r>
       <r>   -1.2098    1.0000 </r>
       <r>   -0.8830    1.0000 </r>
       <r>   -0.4178    1.0000 </r>
       <r>   -0.3885    1.0000 </r>
       <r>   -0.2651    1.0000 </r>
       <r>    0.1868    1.0000 </r>
       <r>    0.3734    1.0000 </r>
       <r>    0.7219    1.0000 </r>
       <r>    1.0382    1.0000 </r>
       <r>    7.8761    0.0000 </r>
       <r>   10.3098    0.0000 </r>
       <r>   10.5385    0.0000 </r>
       <r>   10.6583    0.0000 </r>
       <r>   11.2358    0.0000 </r>
       <r>   12.0275    0.0000 </r>
      </set>
      <set comment="kpoint 14">
       <r>  -18.0817    1.0000 </r>
       <r>  -17.3023    1.0000 </r>
       <r>  -16.6941    1.0000 </r>
       <r>  -16.2371    1.0000 </r>
       <r>  -16.2115    1.0000 </r>
       <r>  -16.1730    1.0000 </r>
       <r>   -7.4954    1.0000 </r>
       <r>   -6.3397    1.0000 </r>
       <r>   -4.8958    1.0000 </r>
       <r>   -4.3504    1.0000 </r>
       <r>   -4.0812    1.0000 </r>
       <r>   -3.8697    1.0000 </r>
       <r>   -2.1002    1.0000 </r>
       <r>   -1.6551    1.0000 </r>
       <r>   -1.5366    1.0000 </r>
       <r>   -1.2643    1.0000 </r>
       <r>   -0.9493    1.0000 </r>
       <r>   -0.4997    1.0000 </r>
       <r>   -0.4181    1.0000 </r>
       <r>   -0.1372    1.0000 </r>
       <r>    0.1725    1.0000 </r>
       <r>    0.3035    1.0000 </r>
       <r>    0.7076    1.0000 </r>
       <r>    1.0249    1.0000 </r>
       <r>    8.5175    0.0000 </r>
       <r>   10.3284    0.0000 </r>
       <r>   10.7389    0.0000 </r>
       <r>   10.8893    0.0000 </r>
       <r>   11.3583    0.0000 </r>
       <r>   11.7229    0.0000 </r>
      </set>
      <set comment="kpoint 15">
       <r>  -17.8678    1.0000 </r>
       <r>  -17.3969    1.0000 </r>
       <r>  -16.8345    1.0000 </r>
       <r>  -16.2561    1.0000 </r>
       <r>  -16.2314    1.0000 </r>
       <r>  -16.1851    1.0000 </r>
       <r>   -7.2934    1.0000 </r>
       <r>   -6.1984    1.0000 </r>
       <r>   -5.1946    1.0000 </r>
       <r>   -4.3282    1.0000 </r>
       <r>   -4.0813    1.0000 </r>
       <r>   -3.6987    1.0000 </r>
       <r>   -2.0968    1.0000 </r>
       <r>   -1.8201    1.0000 </r>
       <r>   -1.5932    1.0000 </r>
       <r>   -1.1374    1.0000 </r>
       <r>   -0.9049    1.0000 </r>
       <r>   -0.7126    1.0000 </r>
       <r>   -0.4268    1.0000 </r>
       <r>   -0.1434    1.0000 </r>
       <r>    0.1172    1.0000 </r>
       <r>    0.3701    1.0000 </r>
       <r>    0.7347    1.0000 </r>
       <r>    0.9675    1.0000 </r>
       <r>    9.4535    0.0000 </r>
       <r>   10.4454    0.0000 </r>
       <r>   10.6066    0.0000 </r>
       <r>   11.2141    0.0000 </r>
       <r>   11.4251    0.0000 </r>
       <r>   11.6882    0.0000 </r>
      </set>
      <set comment="kpoint 16">
       <r>  -17.8704    1.0000 </r>
       <r>  -17.3878    1.0000 </r>
       <r>  -16.8462    1.0000 </r>
       <r>  -16.2512    1.0000 </r>
       <r>  -16.2297    1.0000 </r>
       <r>  -16.1864    1.0000 </r>
       <r>   -7.2947    1.0000 </r>
       <r>   -6.1996    1.0000 </r>
       <r>   -5.1940    1.0000 </r>
       <r>   -4.3376    1.0000 </r>
       <r>   -4.0753    1.0000 </r>
       <r>   -3.6842    1.0000 </r>
       <r>   -2.0613    1.0000 </r>
       <r>   -1.8468    1.0000 </r>
       <r>   -1.6117    1.0000 </r>
       <r>   -1.1908    1.0000 </r>
       <r>   -0.9172    1.0000 </r>
       <r>   -0.6782    1.0000 </r>
       <r>   -0.3283    1.0000 </r>
       <r>   -0.1918    1.0000 </r>
       <r>    0.0679    1.0000 </r>
       <r>    0.4509    1.0000 </r>
       <r>    0.6482    1.0000 </r>
       <r>    1.0033    1.0000 </r>
       <r>    9.4430    0.0000 </r>
       <r>   10.3544    0.0000 </r>
       <r>   10.9140    0.0000 </r>
       <r>   11.0687    0.0000 </r>
       <r>   11.4843    0.0000 </r>
       <r>   11.8374    0.0000 </r>
      </set>
      <set comment="kpoint 17">
       <r>  -17.7426    1.0000 </r>
       <r>  -17.4816    1.0000 </r>
       <r>  -16.8850    1.0000 </r>
       <r>  -16.2501    1.0000 </r>
       <r>  -16.2477    1.0000 </r>
       <r>  -16.1890    1.0000 </r>
       <r>   -7.2491    1.0000 </r>
       <r>   -5.9434    1.0000 </r>
       <r>   -5.5269    1.0000 </r>
       <r>   -4.3058    1.0000 </r>
       <r>   -4.0709    1.0000 </r>
       <r>   -3.6261    1.0000 </r>
       <r>   -2.0649    1.0000 </r>
       <r>   -1.7614    1.0000 </r>
       <r>   -1.7590    1.0000 </r>
       <r>   -0.9734    1.0000 </r>
       <r>   -0.9183    1.0000 </r>
       <r>   -0.8515    1.0000 </r>
       <r>   -0.3687    1.0000 </r>
       <r>   -0.2133    1.0000 </r>
       <r>    0.0217    1.0000 </r>
       <r>    0.5689    1.0000 </r>
       <r>    0.6156    1.0000 </r>
       <r>    0.9630    1.0000 </r>
       <r>   10.0537    0.0000 </r>
       <r>   10.2550    0.0000 </r>
       <r>   10.6664    0.0000 </r>
       <r>   11.3750    0.0000 </r>
       <r>   11.4415    0.0000 </r>
       <r>   11.5334    0.0000 </r>
      </set>
      <set comment="kpoint 18">
       <r>  -18.0726    1.0000 </r>
       <r>  -17.7213    1.0000 </r>
       <r>  -16.2304    1.0000 </r>
       <r>  -16.1992    1.0000 </r>
       <r>  -16.1891    1.0000 </r>
       <r>  -16.1367    1.0000 </r>
       <r>   -8.2370    1.0000 </r>
       <r>   -5.5394    1.0000 </r>
       <r>   -4.8893    1.0000 </r>
       <r>   -4.5415    1.0000 </r>
       <r>   -4.5097    1.0000 </r>
       <r>   -3.6409    1.0000 </r>
       <r>   -1.7906    1.0000 </r>
       <r>   -1.5609    1.0000 </r>
       <r>   -1.5182    1.0000 </r>
       <r>   -1.0276    1.0000 </r>
       <r>   -0.8508    1.0000 </r>
       <r>   -0.7519    1.0000 </r>
       <r>   -0.6415    1.0000 </r>
       <r>   -0.4642    1.0000 </r>
       <r>   -0.0963    1.0000 </r>
       <r>    0.7611    1.0000 </r>
       <r>    0.9762    1.0000 </r>
       <r>    0.9777    1.0000 </r>
       <r>    8.4917    0.0000 </r>
       <r>    9.6469    0.0000 </r>
       <r>   10.2018    0.0000 </r>
       <r>   10.5293    0.0000 </r>
       <r>   11.2560    0.0000 </r>
       <r>   11.6972    0.0000 </r>
      </set>
      <set comment="kpoint 19">
       <r>  -18.0109    1.0000 </r>
       <r>  -17.6798    1.0000 </r>
       <r>  -16.3523    1.0000 </r>
       <r>  -16.2209    1.0000 </r>
       <r>  -16.1969    1.0000 </r>
       <r>  -16.1507    1.0000 </r>
       <r>   -8.0375    1.0000 </r>
       <r>   -5.6437    1.0000 </r>
       <r>   -5.0573    1.0000 </r>
       <r>   -4.4418    1.0000 </r>
       <r>   -4.3448    1.0000 </r>
       <r>   -3.6979    1.0000 </r>
       <r>   -1.9301    1.0000 </r>
       <r>   -1.6499    1.0000 </r>
       <r>   -1.5004    1.0000 </r>
       <r>   -1.1266    1.0000 </r>
       <r>   -0.9497    1.0000 </r>
       <r>   -0.5766    1.0000 </r>
       <r>   -0.5293    1.0000 </r>
       <r>   -0.3273    1.0000 </r>
       <r>   -0.0238    1.0000 </r>
       <r>    0.6476    1.0000 </r>
       <r>    0.9015    1.0000 </r>
       <r>    0.9308    1.0000 </r>
       <r>    8.7704    0.0000 </r>
       <r>    9.7848    0.0000 </r>
       <r>   10.3740    0.0000 </r>
       <r>   10.5689    0.0000 </r>
       <r>   11.3166    0.0000 </r>
       <r>   11.6775    0.0000 </r>
      </set>
      <set comment="kpoint 20">
       <r>  -17.8817    1.0000 </r>
       <r>  -17.5440    1.0000 </r>
       <r>  -16.6648    1.0000 </r>
       <r>  -16.2618    1.0000 </r>
       <r>  -16.2033    1.0000 </r>
       <r>  -16.1727    1.0000 </r>
       <r>   -7.5518    1.0000 </r>
       <r>   -5.9432    1.0000 </r>
       <r>   -5.2409    1.0000 </r>
       <r>   -4.3221    1.0000 </r>
       <r>   -4.0696    1.0000 </r>
       <r>   -3.8333    1.0000 </r>
       <r>   -2.1106    1.0000 </r>
       <r>   -1.9277    1.0000 </r>
       <r>   -1.3555    1.0000 </r>
       <r>   -1.1904    1.0000 </r>
       <r>   -0.9497    1.0000 </r>
       <r>   -0.4907    1.0000 </r>
       <r>   -0.3573    1.0000 </r>
       <r>   -0.1483    1.0000 </r>
       <r>    0.1163    1.0000 </r>
       <r>    0.4515    1.0000 </r>
       <r>    0.6784    1.0000 </r>
       <r>    0.8764    1.0000 </r>
       <r>    9.4987    0.0000 </r>
       <r>   10.0811    0.0000 </r>
       <r>   10.6265    0.0000 </r>
       <r>   10.8026    0.0000 </r>
       <r>   11.5625    0.0000 </r>
       <r>   11.9235    0.0000 </r>
      </set>
      <set comment="kpoint 21">
       <r>  -17.8257    1.0000 </r>
       <r>  -17.3796    1.0000 </r>
       <r>  -16.9132    1.0000 </r>
       <r>  -16.2795    1.0000 </r>
       <r>  -16.2055    1.0000 </r>
       <r>  -16.1830    1.0000 </r>
       <r>   -7.1975    1.0000 </r>
       <r>   -6.2166    1.0000 </r>
       <r>   -5.2929    1.0000 </r>
       <r>   -4.2937    1.0000 </r>
       <r>   -3.9297    1.0000 </r>
       <r>   -3.8971    1.0000 </r>
       <r>   -2.1200    1.0000 </r>
       <r>   -2.0917    1.0000 </r>
       <r>   -1.3668    1.0000 </r>
       <r>   -1.1115    1.0000 </r>
       <r>   -0.9585    1.0000 </r>
       <r>   -0.5199    1.0000 </r>
       <r>   -0.2168    1.0000 </r>
       <r>   -0.0707    1.0000 </r>
       <r>    0.1229    1.0000 </r>
       <r>    0.4071    1.0000 </r>
       <r>    0.4637    1.0000 </r>
       <r>    0.9037    1.0000 </r>
       <r>    9.9961    0.0000 </r>
       <r>   10.3852    0.0000 </r>
       <r>   10.7525    0.0000 </r>
       <r>   11.0649    0.0000 </r>
       <r>   11.4774    0.0000 </r>
       <r>   11.7608    0.0000 </r>
      </set>
      <set comment="kpoint 22">
       <r>  -17.8879    1.0000 </r>
       <r>  -17.5311    1.0000 </r>
       <r>  -16.6825    1.0000 </r>
       <r>  -16.2547    1.0000 </r>
       <r>  -16.1951    1.0000 </r>
       <r>  -16.1768    1.0000 </r>
       <r>   -7.5536    1.0000 </r>
       <r>   -5.9478    1.0000 </r>
       <r>   -5.2352    1.0000 </r>
       <r>   -4.3429    1.0000 </r>
       <r>   -4.0694    1.0000 </r>
       <r>   -3.7943    1.0000 </r>
       <r>   -2.0874    1.0000 </r>
       <r>   -1.9511    1.0000 </r>
       <r>   -1.3256    1.0000 </r>
       <r>   -1.2616    1.0000 </r>
       <r>   -1.0110    1.0000 </r>
       <r>   -0.4174    1.0000 </r>
       <r>   -0.3066    1.0000 </r>
       <r>   -0.1162    1.0000 </r>
       <r>    0.1270    1.0000 </r>
       <r>    0.3224    1.0000 </r>
       <r>    0.6261    1.0000 </r>
       <r>    0.9767    1.0000 </r>
       <r>    9.3794    0.0000 </r>
       <r>   10.3583    0.0000 </r>
       <r>   10.5591    0.0000 </r>
       <r>   11.0735    0.0000 </r>
       <r>   11.2146    0.0000 </r>
       <r>   11.7191    0.0000 </r>
      </set>
      <set comment="kpoint 23">
       <r>  -18.0121    1.0000 </r>
       <r>  -17.6775    1.0000 </r>
       <r>  -16.3623    1.0000 </r>
       <r>  -16.2181    1.0000 </r>
       <r>  -16.1890    1.0000 </r>
       <r>  -16.1523    1.0000 </r>
       <r>   -8.0380    1.0000 </r>
       <r>   -5.6451    1.0000 </r>
       <r>   -5.0569    1.0000 </r>
       <r>   -4.4383    1.0000 </r>
       <r>   -4.3529    1.0000 </r>
       <r>   -3.6866    1.0000 </r>
       <r>   -1.9233    1.0000 </r>
       <r>   -1.6468    1.0000 </r>
       <r>   -1.4978    1.0000 </r>
       <r>   -1.1557    1.0000 </r>
       <r>   -0.9813    1.0000 </r>
       <r>   -0.5740    1.0000 </r>
       <r>   -0.4571    1.0000 </r>
       <r>   -0.3526    1.0000 </r>
       <r>   -0.0238    1.0000 </r>
       <r>    0.6470    1.0000 </r>
       <r>    0.8099    1.0000 </r>
       <r>    1.0172    1.0000 </r>
       <r>    8.7445    0.0000 </r>
       <r>    9.8404    0.0000 </r>
       <r>   10.3331    0.0000 </r>
       <r>   10.6879    0.0000 </r>
       <r>   11.2061    0.0000 </r>
       <r>   11.6613    0.0000 </r>
      </set>
      <set comment="kpoint 24">
       <r>  -17.9153    1.0000 </r>
       <r>  -17.5874    1.0000 </r>
       <r>  -16.5790    1.0000 </r>
       <r>  -16.2462    1.0000 </r>
       <r>  -16.1997    1.0000 </r>
       <r>  -16.1741    1.0000 </r>
       <r>   -7.6893    1.0000 </r>
       <r>   -5.8352    1.0000 </r>
       <r>   -5.2371    1.0000 </r>
       <r>   -4.3218    1.0000 </r>
       <r>   -4.1612    1.0000 </r>
       <r>   -3.7794    1.0000 </r>
       <r>   -2.0666    1.0000 </r>
       <r>   -1.8464    1.0000 </r>
       <r>   -1.3947    1.0000 </r>
       <r>   -1.2518    1.0000 </r>
       <r>   -0.9428    1.0000 </r>
       <r>   -0.5040    1.0000 </r>
       <r>   -0.3626    1.0000 </r>
       <r>   -0.1527    1.0000 </r>
       <r>    0.0812    1.0000 </r>
       <r>    0.4502    1.0000 </r>
       <r>    0.7366    1.0000 </r>
       <r>    0.9022    1.0000 </r>
       <r>    9.2286    0.0000 </r>
       <r>   10.0939    0.0000 </r>
       <r>   10.5320    0.0000 </r>
       <r>   10.9190    0.0000 </r>
       <r>   11.3027    0.0000 </r>
       <r>   11.6659    0.0000 </r>
      </set>
      <set comment="kpoint 25">
       <r>  -17.8195    1.0000 </r>
       <r>  -17.4053    1.0000 </r>
       <r>  -16.8815    1.0000 </r>
       <r>  -16.2766    1.0000 </r>
       <r>  -16.2142    1.0000 </r>
       <r>  -16.1899    1.0000 </r>
       <r>   -7.1911    1.0000 </r>
       <r>   -6.1710    1.0000 </r>
       <r>   -5.3820    1.0000 </r>
       <r>   -4.2402    1.0000 </r>
       <r>   -3.9741    1.0000 </r>
       <r>   -3.8927    1.0000 </r>
       <r>   -2.1582    1.0000 </r>
       <r>   -1.9619    1.0000 </r>
       <r>   -1.4680    1.0000 </r>
       <r>   -1.1018    1.0000 </r>
       <r>   -0.8869    1.0000 </r>
       <r>   -0.6436    1.0000 </r>
       <r>   -0.1607    1.0000 </r>
       <r>   -0.0410    1.0000 </r>
       <r>    0.1864    1.0000 </r>
       <r>    0.3632    1.0000 </r>
       <r>    0.5524    1.0000 </r>
       <r>    0.7822    1.0000 </r>
       <r>    9.9204    0.0000 </r>
       <r>   10.4292    0.0000 </r>
       <r>   10.7282    0.0000 </r>
       <r>   11.1361    0.0000 </r>
       <r>   11.4510    0.0000 </r>
       <r>   11.6938    0.0000 </r>
      </set>
      <set comment="kpoint 26">
       <r>  -17.8218    1.0000 </r>
       <r>  -17.3981    1.0000 </r>
       <r>  -16.8893    1.0000 </r>
       <r>  -16.2738    1.0000 </r>
       <r>  -16.2133    1.0000 </r>
       <r>  -16.1905    1.0000 </r>
       <r>   -7.1918    1.0000 </r>
       <r>   -6.1728    1.0000 </r>
       <r>   -5.3799    1.0000 </r>
       <r>   -4.2491    1.0000 </r>
       <r>   -3.9765    1.0000 </r>
       <r>   -3.8754    1.0000 </r>
       <r>   -2.1528    1.0000 </r>
       <r>   -1.9677    1.0000 </r>
       <r>   -1.4751    1.0000 </r>
       <r>   -1.0997    1.0000 </r>
       <r>   -0.9340    1.0000 </r>
       <r>   -0.5953    1.0000 </r>
       <r>   -0.1654    1.0000 </r>
       <r>    0.0173    1.0000 </r>
       <r>    0.1808    1.0000 </r>
       <r>    0.2909    1.0000 </r>
       <r>    0.5316    1.0000 </r>
       <r>    0.8263    1.0000 </r>
       <r>    9.8630    0.0000 </r>
       <r>   10.5309    0.0000 </r>
       <r>   10.7997    0.0000 </r>
       <r>   11.1272    0.0000 </r>
       <r>   11.3124    0.0000 </r>
       <r>   11.6855    0.0000 </r>
      </set>
      <set comment="kpoint 27">
       <r>  -17.7858    1.0000 </r>
       <r>  -17.2698    1.0000 </r>
       <r>  -17.0498    1.0000 </r>
       <r>  -16.2841    1.0000 </r>
       <r>  -16.2263    1.0000 </r>
       <r>  -16.1988    1.0000 </r>
       <r>   -6.8768    1.0000 </r>
       <r>   -6.3925    1.0000 </r>
       <r>   -5.4904    1.0000 </r>
       <r>   -4.1902    1.0000 </r>
       <r>   -3.9340    1.0000 </r>
       <r>   -3.9321    1.0000 </r>
       <r>   -2.1911    1.0000 </r>
       <r>   -1.7511    1.0000 </r>
       <r>   -1.7356    1.0000 </r>
       <r>   -0.8932    1.0000 </r>
       <r>   -0.8697    1.0000 </r>
       <r>   -0.8636    1.0000 </r>
       <r>    0.0102    1.0000 </r>
       <r>    0.0262    1.0000 </r>
       <r>    0.1922    1.0000 </r>
       <r>    0.4165    1.0000 </r>
       <r>    0.4371    1.0000 </r>
       <r>    0.6450    1.0000 </r>
       <r>   10.1459    0.0000 </r>
       <r>   10.7018    0.0000 </r>
       <r>   10.9280    0.0000 </r>
       <r>   11.2115    0.0000 </r>
       <r>   11.3174    0.0000 </r>
       <r>   11.3912    0.0000 </r>
      </set>
     </set>
    </set>
   </array>
  </eigenvalues>
  <separator name="orbital magnetization" >
   <v name="MAGDIPOLOUT">      0.00000000      0.00000000      0.00000000</v>
  </separator>
  <dos>
   <i name="efermi">      1.10290155 </i>
   <total>
    <array>
     <dimension dim="1">gridpoints</dimension>
     <dimension dim="2">spin</dimension>
     <field>energy</field>
     <field>total</field>
     <field>integrated</field>
     <set>
      <set comment="spin 1">
       <r>   -20.3771     0.0000     0.0000 </r>
       <r>   -20.2613     0.0000     0.0000 </r>
       <r>   -20.1455     0.0000     0.0000 </r>
       <r>   -20.0297     0.0000     0.0000 </r>
       <r>   -19.9139     0.0000     0.0000 </r>
       <r>   -19.7981     0.0000     0.0000 </r>
       <r>   -19.6823     0.0000     0.0000 </r>
       <r>   -19.5666     0.0000     0.0000 </r>
       <r>   -19.4508     0.0000     0.0000 </r>
       <r>   -19.3350     0.0000     0.0000 </r>
       <r>   -19.2192     0.0000     0.0000 </r>
       <r>   -19.1034     0.0000     0.0000 </r>
       <r>   -18.9876     0.0000     0.0000 </r>
       <r>   -18.8718     0.0000     0.0000 </r>
       <r>   -18.7560     0.0000     0.0000 </r>
       <r>   -18.6402     0.0000     0.0000 </r>
       <r>   -18.5244     0.0000     0.0000 </r>
       <r>   -18.4086     0.0000     0.0000 </r>
       <r>   -18.2928     0.9321     0.0269 </r>
       <r>   -18.1770     1.6526     0.1770 </r>
       <r>   -18.0612     2.8318     0.4260 </r>
       <r>   -17.9454     4.7507     0.8815 </r>
       <r>   -17.8296     8.0578     1.7086 </r>
       <r>   -17.7138     0.4457     1.9972 </r>
       <r>   -17.5980     1.5301     2.1316 </r>
       <r>   -17.4822     3.2799     2.3870 </r>
       <r>   -17.3664     7.3050     3.3114 </r>
       <r>   -17.2506     1.9926     3.7422 </r>
       <r>   -17.1349     0.8768     3.8980 </r>
       <r>   -17.0191     0.6063     3.9735 </r>
       <r>   -16.9033     3.0328     4.1053 </r>
       <r>   -16.7875     7.4840     5.0254 </r>
       <r>   -16.6717     2.6092     5.5061 </r>
       <r>   -16.5559     1.5169     5.7407 </r>
       <r>   -16.4401     0.9984     5.8864 </r>
       <r>   -16.3243     0.5605     5.9762 </r>
       <r>   -16.2085    56.6614     9.0957 </r>
       <r>   -16.0927     0.0000    12.0000 </r>
       <r>   -15.9769     0.0000    12.0000 </r>
       <r>   -15.8611     0.0000    12.0000 </r>
       <r>   -15.7453     0.0000    12.0000 </r>
       <r>   -15.6295     0.0000    12.0000 </r>
       <r>   -15.5137     0.0000    12.0000 </r>
       <r>   -15.3979     0.0000    12.0000 </r>
       <r>   -15.2821     0.0000    12.0000 </r>
       <r>   -15.1663     0.0000    12.0000 </r>
       <r>   -15.0505     0.0000    12.0000 </r>
       <r>   -14.9347     0.0000    12.0000 </r>
       <r>   -14.8189     0.0000    12.0000 </r>
       <r>   -14.7032     0.0000    12.0000 </r>
       <r>   -14.5874     0.0000    12.0000 </r>
       <r>   -14.4716     0.0000    12.0000 </r>
       <r>   -14.3558     0.0000    12.0000 </r>
       <r>   -14.2400     0.0000    12.0000 </r>
       <r>   -14.1242     0.0000    12.0000 </r>
       <r>   -14.0084     0.0000    12.0000 </r>
       <r>   -13.8926     0.0000    12.0000 </r>
       <r>   -13.7768     0.0000    12.0000 </r>
       <r>   -13.6610     0.0000    12.0000 </r>
       <r>   -13.5452     0.0000    12.0000 </r>
       <r>   -13.4294     0.0000    12.0000 </r>
       <r>   -13.3136     0.0000    12.0000 </r>
       <r>   -13.1978     0.0000    12.0000 </r>
       <r>   -13.0820     0.0000    12.0000 </r>
       <r>   -12.9662     0.0000    12.0000 </r>
       <r>   -12.8504     0.0000    12.0000 </r>
       <r>   -12.7346     0.0000    12.0000 </r>
       <r>   -12.6188     0.0000    12.0000 </r>
       <r>   -12.5030     0.0000    12.0000 </r>
       <r>   -12.3872     0.0000    12.0000 </r>
       <r>   -12.2715     0.0000    12.0000 </r>
       <r>   -12.1557     0.0000    12.0000 </r>
       <r>   -12.0399     0.0000    12.0000 </r>
       <r>   -11.9241     0.0000    12.0000 </r>
       <r>   -11.8083     0.0000    12.0000 </r>
       <r>   -11.6925     0.0000    12.0000 </r>
       <r>   -11.5767     0.0000    12.0000 </r>
       <r>   -11.4609     0.0000    12.0000 </r>
       <r>   -11.3451     0.0000    12.0000 </r>
       <r>   -11.2293     0.0000    12.0000 </r>
       <r>   -11.1135     0.0000    12.0000 </r>
       <r>   -10.9977     0.0000    12.0000 </r>
       <r>   -10.8819     0.0000    12.0000 </r>
       <r>   -10.7661     0.0000    12.0000 </r>
       <r>   -10.6503     0.0000    12.0000 </r>
       <r>   -10.5345     0.0000    12.0000 </r>
       <r>   -10.4187     0.0000    12.0000 </r>
       <r>   -10.3029     0.0000    12.0000 </r>
       <r>   -10.1871     0.0000    12.0000 </r>
       <r>   -10.0713     0.0000    12.0000 </r>
       <r>    -9.9555     0.0000    12.0000 </r>
       <r>    -9.8397     0.0000    12.0000 </r>
       <r>    -9.7240     0.0000    12.0000 </r>
       <r>    -9.6082     0.0000    12.0000 </r>
       <r>    -9.4924     0.0000    12.0000 </r>
       <r>    -9.3766     0.0000    12.0000 </r>
       <r>    -9.2608     0.0000    12.0000 </r>
       <r>    -9.1450     0.0000    12.0000 </r>
       <r>    -9.0292     0.0000    12.0000 </r>
       <r>    -8.9134     0.0000    12.0000 </r>
       <r>    -8.7976     0.0000    12.0000 </r>
       <r>    -8.6818     0.0000    12.0000 </r>
       <r>    -8.5660     0.0000    12.0000 </r>
       <r>    -8.4502     0.0000    12.0000 </r>
       <r>    -8.3344     0.0000    12.0000 </r>
       <r>    -8.2186     0.0325    12.0003 </r>
       <r>    -8.1028     0.3115    12.0190 </r>
       <r>    -7.9870     0.4638    12.0674 </r>
       <r>    -7.8712     0.6745    12.1330 </r>
       <r>    -7.7554     0.8784    12.2235 </r>
       <r>    -7.6396     1.2067    12.3412 </r>
       <r>    -7.5238     1.6748    12.5065 </r>
       <r>    -7.4080     3.0187    12.7576 </r>
       <r>    -7.2923     7.5358    13.5167 </r>
       <r>    -7.1765     0.9210    13.8878 </r>
       <r>    -7.0607     0.4863    13.9671 </r>
       <r>    -6.9449     0.2596    14.0088 </r>
       <r>    -6.8291     0.2560    14.0352 </r>
       <r>    -6.7133     0.3998    14.0729 </r>
       <r>    -6.5975     0.6165    14.1301 </r>
       <r>    -6.4817     1.0452    14.2241 </r>
       <r>    -6.3659     1.7951    14.3823 </r>
       <r>    -6.2501     4.9665    14.7359 </r>
       <r>    -6.1343     3.2148    15.3361 </r>
       <r>    -6.0185     1.7943    15.6194 </r>
       <r>    -5.9027     1.0769    15.7789 </r>
       <r>    -5.7869     0.7289    15.8822 </r>
       <r>    -5.6711     0.4819    15.9513 </r>
       <r>    -5.5553     0.1433    16.0007 </r>
       <r>    -5.4395     1.2306    16.0467 </r>
       <r>    -5.3237     3.1631    16.3030 </r>
       <r>    -5.2079     2.9434    16.6940 </r>
       <r>    -5.0921     2.9008    17.0293 </r>
       <r>    -4.9763     2.4177    17.3465 </r>
       <r>    -4.8606     1.6523    17.5783 </r>
       <r>    -4.7448     1.2108    17.7429 </r>
       <r>    -4.6290     0.8645    17.8629 </r>
       <r>    -4.5132     0.7870    17.9472 </r>
       <r>    -4.3974     4.6151    18.1829 </r>
       <r>    -4.2816    10.0143    19.8753 </r>
       <r>    -4.1658     5.8504    20.7919 </r>
       <r>    -4.0500     5.6320    21.5371 </r>
       <r>    -3.9342     1.5923    22.0920 </r>
       <r>    -3.8184     8.2903    22.8033 </r>
       <r>    -3.7026     4.4118    23.5609 </r>
       <r>    -3.5868     1.9441    23.9312 </r>
       <r>    -3.4710     0.0000    24.0000 </r>
       <r>    -3.3552     0.0000    24.0000 </r>
       <r>    -3.2394     0.0000    24.0000 </r>
       <r>    -3.1236     0.0000    24.0000 </r>
       <r>    -3.0078     0.0000    24.0000 </r>
       <r>    -2.8920     0.0000    24.0000 </r>
       <r>    -2.7762     0.0000    24.0000 </r>
       <r>    -2.6604     0.0000    24.0000 </r>
       <r>    -2.5446     0.0000    24.0000 </r>
       <r>    -2.4289     0.0000    24.0000 </r>
       <r>    -2.3131     0.0000    24.0000 </r>
       <r>    -2.1973     0.0000    24.0000 </r>
       <r>    -2.0815    14.3545    24.8292 </r>
       <r>    -1.9657     5.7026    25.9883 </r>
       <r>    -1.8499     5.7101    26.6423 </r>
       <r>    -1.7341     6.7500    27.5385 </r>
       <r>    -1.6183     5.2129    28.2320 </r>
       <r>    -1.5025    10.1682    29.2652 </r>
       <r>    -1.3867     3.4826    29.9143 </r>
       <r>    -1.2709     2.4917    30.1006 </r>
       <r>    -1.1551    10.4907    31.3305 </r>
       <r>    -1.0393     2.4209    31.9242 </r>
       <r>    -0.9235    20.2491    33.1637 </r>
       <r>    -0.8077     1.7683    33.9155 </r>
       <r>    -0.6919     6.9433    34.3206 </r>
       <r>    -0.5761     7.4528    35.0573 </r>
       <r>    -0.4603    10.9937    36.2817 </r>
       <r>    -0.3445     5.4473    37.4157 </r>
       <r>    -0.2287     4.7321    37.9747 </r>
       <r>    -0.1129    11.2734    39.0773 </r>
       <r>     0.0028     5.0592    40.0572 </r>
       <r>     0.1186    15.8232    41.0549 </r>
       <r>     0.2344     0.1283    42.0005 </r>
       <r>     0.3502    12.7954    42.6264 </r>
       <r>     0.4660     3.5194    43.6830 </r>
       <r>     0.5818     4.3633    44.1961 </r>
       <r>     0.6976     7.1582    44.8435 </r>
       <r>     0.8134     9.0656    45.9282 </r>
       <r>     0.9292     7.8127    46.6673 </r>
       <r>     1.0450     5.7987    47.9116 </r>
       <r>     1.1608     0.0000    48.0000 </r>
       <r>     1.2766     0.0000    48.0000 </r>
       <r>     1.3924     0.0000    48.0000 </r>
       <r>     1.5082     0.0000    48.0000 </r>
       <r>     1.6240     0.0000    48.0000 </r>
       <r>     1.7398     0.0000    48.0000 </r>
       <r>     1.8556     0.0000    48.0000 </r>
       <r>     1.9714     0.0000    48.0000 </r>
       <r>     2.0872     0.0000    48.0000 </r>
       <r>     2.2030     0.0000    48.0000 </r>
       <r>     2.3188     0.0000    48.0000 </r>
       <r>     2.4345     0.0000    48.0000 </r>
       <r>     2.5503     0.0000    48.0000 </r>
       <r>     2.6661     0.0000    48.0000 </r>
       <r>     2.7819     0.0000    48.0000 </r>
       <r>     2.8977     0.0000    48.0000 </r>
       <r>     3.0135     0.0000    48.0000 </r>
       <r>     3.1293     0.0000    48.0000 </r>
       <r>     3.2451     0.0000    48.0000 </r>
       <r>     3.3609     0.0000    48.0000 </r>
       <r>     3.4767     0.0000    48.0000 </r>
       <r>     3.5925     0.0000    48.0000 </r>
       <r>     3.7083     0.0000    48.0000 </r>
       <r>     3.8241     0.0000    48.0000 </r>
       <r>     3.9399     0.0000    48.0000 </r>
       <r>     4.0557     0.0000    48.0000 </r>
       <r>     4.1715     0.0000    48.0000 </r>
       <r>     4.2873     0.0000    48.0000 </r>
       <r>     4.4031     0.0000    48.0000 </r>
       <r>     4.5189     0.0000    48.0000 </r>
       <r>     4.6347     0.0000    48.0000 </r>
       <r>     4.7505     0.0000    48.0000 </r>
       <r>     4.8662     0.0000    48.0000 </r>
       <r>     4.9820     0.0000    48.0000 </r>
       <r>     5.0978     0.0000    48.0000 </r>
       <r>     5.2136     0.0000    48.0000 </r>
       <r>     5.3294     0.0000    48.0000 </r>
       <r>     5.4452     0.0000    48.0000 </r>
       <r>     5.5610     0.0000    48.0000 </r>
       <r>     5.6768     0.0000    48.0000 </r>
       <r>     5.7926     0.0000    48.0000 </r>
       <r>     5.9084     0.0000    48.0000 </r>
       <r>     6.0242     0.0000    48.0000 </r>
       <r>     6.1400     0.0000    48.0000 </r>
       <r>     6.2558     0.0000    48.0000 </r>
       <r>     6.3716     0.0000    48.0000 </r>
       <r>     6.4874     0.0000    48.0000 </r>
       <r>     6.6032     0.0000    48.0000 </r>
       <r>     6.7190     0.0000    48.0000 </r>
       <r>     6.8348     0.0000    48.0000 </r>
       <r>     6.9506     0.0000    48.0000 </r>
       <r>     7.0664     0.0000    48.0000 </r>
       <r>     7.1822     0.0046    48.0001 </r>
       <r>     7.2979     0.0337    48.0021 </r>
       <r>     7.4137     0.0896    48.0089 </r>
       <r>     7.5295     0.1764    48.0239 </r>
       <r>     7.6453     0.2357    48.0482 </r>
       <r>     7.7611     0.2713    48.0778 </r>
       <r>     7.8769     0.2889    48.1104 </r>
       <r>     7.9927     0.3330    48.1463 </r>
       <r>     8.1085     0.3809    48.1876 </r>
       <r>     8.2243     0.4314    48.2346 </r>
       <r>     8.3401     0.4844    48.2876 </r>
       <r>     8.4559     0.5395    48.3468 </r>
       <r>     8.5717     0.6661    48.4154 </r>
       <r>     8.6875     0.8199    48.5015 </r>
       <r>     8.8033     0.8148    48.5986 </r>
       <r>     8.9191     0.8756    48.6965 </r>
       <r>     9.0349     0.9386    48.8015 </r>
       <r>     9.1507     1.0035    48.9139 </r>
       <r>     9.2665     1.0926    49.0340 </r>
       <r>     9.3823     1.5230    49.1949 </r>
       <r>     9.4981     1.3488    49.3659 </r>
       <r>     9.6139     1.2388    49.5134 </r>
       <r>     9.7296     1.4019    49.6627 </r>
       <r>     9.8454     1.4795    49.8342 </r>
       <r>     9.9612     1.7087    50.0480 </r>
       <r>    10.0770     1.0869    50.1957 </r>
       <r>    10.1928     2.0430    50.3525 </r>
       <r>    10.3086     6.1505    50.7721 </r>
       <r>    10.4244     6.1287    51.8711 </r>
       <r>    10.5402     4.2873    52.3595 </r>
       <r>    10.6560     8.3054    53.1109 </r>
       <r>    10.7718     6.4850    53.9906 </r>
       <r>    10.8876     2.5089    54.4657 </r>
       <r>    11.0034     4.1122    54.8073 </r>
       <r>    11.1192     7.8210    55.5347 </r>
       <r>    11.2350     4.6945    56.0917 </r>
       <r>    11.3508     6.7114    56.7897 </r>
       <r>    11.4666     7.0603    57.6159 </r>
       <r>    11.5824     1.4830    58.0477 </r>
       <r>    11.6982    10.7440    58.5111 </r>
       <r>    11.8140     4.9602    59.5309 </r>
       <r>    11.9298     0.9777    59.7933 </r>
       <r>    12.0456     0.6327    59.8807 </r>
       <r>    12.1613     0.4684    59.9451 </r>
       <r>    12.2771     0.2985    59.9889 </r>
       <r>    12.3929     0.0000    60.0000 </r>
       <r>    12.5087     0.0000    60.0000 </r>
       <r>    12.6245     0.0000    60.0000 </r>
       <r>    12.7403     0.0000    60.0000 </r>
       <r>    12.8561     0.0000    60.0000 </r>
       <r>    12.9719     0.0000    60.0000 </r>
       <r>    13.0877     0.0000    60.0000 </r>
       <r>    13.2035     0.0000    60.0000 </r>
       <r>    13.3193     0.0000    60.0000 </r>
       <r>    13.4351     0.0000    60.0000 </r>
       <r>    13.5509     0.0000    60.0000 </r>
       <r>    13.6667     0.0000    60.0000 </r>
       <r>    13.7825     0.0000    60.0000 </r>
       <r>    13.8983     0.0000    60.0000 </r>
       <r>    14.0141     0.0000    60.0000 </r>
       <r>    14.1299     0.0000    60.0000 </r>
       <r>    14.2457     0.0000    60.0000 </r>
       <r>    14.3615     0.0000    60.0000 </r>
      </set>
     </set>
    </array>
   </total>
  </dos>
 </calculation>
 <structure name="finalpos" >
  <crystal>
   <varray name="basis" >
    <v>       4.91380000       0.00000000       0.00000000 </v>
    <v>      -2.45690000       4.25547563       0.00000000 </v>
    <v>       0.00000000       0.00000000       5.40520000 </v>
   </varray>
   <i name="volume">    113.02573808 </i>
   <varray name="rec_basis" >
    <v>       0.20350849       0.11749568       0.00000000 </v>
    <v>       0.00000000       0.23499136       0.00000000 </v>
    <v>       0.00000000       0.00000000       0.18500703 </v>
   </varray>
  </crystal>
  <varray name="positions" >
   <v>       0.46980000       0.00000000       0.66666667 </v>
   <v>       0.53020000       0.53020000       0.00000000 </v>
   <v>       0.00000000       0.46980000       0.33333333 </v>
   <v>       0.41450000       0.26620000       0.78560000 </v>
   <v>       0.58550000       0.85170000       0.88106667 </v>
   <v>       0.14830000       0.73380000       0.54773333 </v>
   <v>       0.26620000       0.41450000       0.21440000 </v>
   <v>       0.85170000       0.58550000       0.11893333 </v>
   <v>       0.73380000       0.14830000       0.45226667 </v>
  </varray>
 </structure>
</modeling>
